
                                 *****************
                                 * O   R   C   A *
                                 *****************

                                            #,                                       
                                            ###                                      
                                            ####                                     
                                            #####                                    
                                            ######                                   
                                           ########,                                 
                                     ,,################,,,,,                         
                               ,,#################################,,                 
                          ,,##########################################,,             
                       ,#########################################, ''#####,          
                    ,#############################################,,   '####,        
                  ,##################################################,,,,####,       
                ,###########''''           ''''###############################       
              ,#####''   ,,,,##########,,,,          '''####'''          '####       
            ,##' ,,,,###########################,,,                        '##       
           ' ,,###''''                  '''############,,,                           
         ,,##''                                '''############,,,,        ,,,,,,###''
      ,#''                                            '''#######################'''  
     '                                                          ''''####''''         
             ,#######,   #######,   ,#######,      ##                                
            ,#'     '#,  ##    ##  ,#'     '#,    #''#        ,####,    ,#,          
            ##       ##  ##   ,#'  ##            #'  '#       #'       ,# #          
            ##       ##  #######   ##           ,######,      #####,      #          
            '#,     ,#'  ##    ##  '#,     ,#' ,#      #,     #,   #      #          
             '#######'   ##     ##  '#######'  #'      '#     '####' #    #          



                #########################################################
                #                        -***-                          #
                #          Department of theory and spectroscopy        #
                #                                                       #
                #                      Frank Neese                      #
                #                                                       #
                #     Directorship, Architecture, Infrastructure        #
                #                    SHARK, DRIVERS                     #
                #        Core code/Algorithms in most modules           #
                #                                                       #
                #        Max Planck Institute fuer Kohlenforschung      #
                #                Kaiser Wilhelm Platz 1                 #
                #                 D-45470 Muelheim/Ruhr                 #
                #                      Germany                          #
                #                                                       #
                #                  All rights reserved                  #
                #                        -***-                          #
                #########################################################


                         Program Version 6.1.1  -  RELEASE   -
                                (GIT: $487d211c$)
                          ($2025-11-21 10:33:24 +0100$)
                                                                         
                                  - NO-DMRG VERSION -                    
                                                                         


 With contributions from (in alphabetic order):
[Max-Planck-Institut fuer Kohlenforschung]                               
  Daniel Aravena         : Magnetic Suceptibility                        
  Michael Atanasov       : Ab Initio Ligand Field Theory (pilot matlab implementation)
  Alexander A. Auer      : GIAO ZORA, VPT2 properties, NMR spectrum      
  Ute Becker             : All parallelization in ORCA, NUMFREQ, NUMCALC 
  Giovanni Bistoni       : ED, misc. LED, open-shell LED, HFLD           
  Dmytro Bykov           : pre 5.0 version of the SCF Hessian            
  Marcos Casanova-Páez   : Triplet and SCS-CIS(D). UHF-(DLPNO)-IP/EA/STEOM-CCSD. UHF-CVS-IP/STEOM-CCSD   
  Vijay G. Chilkuri      : MRCI spin determinant printing, contributions to CSF-ICE 
  Pauline Colinet        : FMM embedding                                 
  Dipayan Datta          : RHF DLPNO-CCSD density                        
  Achintya Kumar Dutta   : EOM-CC, STEOM-CC                              
  Nicolas Foglia         : Exact transition moments, OPA infrastructure, MCD improvements    
  Dmitry Ganyushin       : Spin-Orbit,Spin-Spin,Magnetic field MRCI      
  Miquel Garcia-Rates    : C-PCM and meta-GGA Hessian, CCSD/C-PCM, Gaussian charge scheme 
  Tiago L. C. Gouveia    : GS-ROHF, GS-ROCIS                             
  Yang Guo               : DLPNO-NEVPT2, F12-NEVPT2, CIM, IAO-localization        
  Andreas Hansen         : Spin unrestricted coupled pair/coupled cluster methods 
  Ingolf Harden          : AUTO-CI MPn and infrastructure                
  Benjamin Helmich-Paris : MC-RPA, TRAH-(SCF,CASSCF), AVAS, COSX integrals, SCF dyn. polar., MC-PDFT, srDFT 
  Lee Huntington         : MR-EOM, pCC                                   
  Robert Izsak           : Overlap fitted RIJCOSX, COSX-SCS-MP3, EOM     
  Riya Kayal             : Wick's Theorem for AUTO-CI, AUTO-CI UHF-CCSDT 
  Emily Kempfer          : AUTO-CI RHF CISDT and CCSDT, approximate NEVPT4
  Christian Kollmar      : KDIIS, OOCD, Brueckner-CCSD(T), CCSD density, CASPT2, CASPT2-K, improved NEVPT2 
  Axel Koslowski         : Symmetry handling                             
  Simone Kossmann        : meta-GGA functionals, TD-DFT gradient, OOMP2, (MP2 Hessian; deprecated post 5.0) 
  Lucas Lang             : DCDCAS, Hyperfine gauge corrections, ICE-SOC+SSC
  Marvin Lechner         : AUTO-CI (C++ implementation), FIC-MRCC        
  Spencer Leger          : CASSCF response                               
  Dagmar Lenk            : GEPOL surface, SMD, ORCA-2-JSON               
  Dimitrios Liakos       : Extrapolation schemes; Compound Job, Property file
  Dimitrios Manganas     : Further ROCIS development; embedding schemes. LFT, Crystal Embedding 
  Dimitrios Pantazis     : SARC Basis sets                               
  Anastasios Papadopoulos: AUTO-CI, single reference methods and gradients 
  Taras Petrenko         : pre 6.0 DFT Hessian and TD-DFT gradient,  ECA, NRVS 
  Petra Pikulova         : Analytic Raman intensities                    
  Peter Pinski           : DLPNO-MP2, DLPNO-MP2 Gradient                 
  Shashank Vittal Rao    : ES-AILFT, MagRelax                            
  Christoph Reimann      : Effective Core Potentials                     
  Marius Retegan         : Local ZFS, SOC                                
  Christoph Riplinger    : Optimizer, TS searches, QM/MM, DLPNO-CCSD(T), (RO)-DLPNO pert. Triples 
  Michael Roemelt        : Original ROCIS implementation, recursive CI coupling coefficients
  Masaaki Saitow         : Open-shell DLPNO-CCSD energy and density      
  Barbara Sandhoefer     : DKH picture change effects                    
  Yorick L. A. Schmerwitz: GMF and freeze-and-release deltaSCF, NEB S-IDPP initial path                    
  Kantharuban Sivalingam : CASSCF convergence/infrastructure, NEVPT2, NEVPT3, NEVPT4(SD), FIC-MRCI and CEPA variants
  Bernardo de Souza      : ESD, SOC TD-DFT                               
  Georgi L. Stoychev     : AutoAux, RI-MP2 NMR, DLPNO-MP2 response, X2C  
  Van Anh Tran           : RI-MP2 g-tensors                              
  Willem Van den Heuvel  : Paramagnetic NMR                              
  Zikuan Wang            : NOTCH, Electric field optimization            
  Frank Wennmohs         : Technical directorship and infrastructure     
  Hang Xu                : AUTO-CI-Response properties                   
                                                                         
[FACCTs GmbH]                                                            
  Markus Bursch, Nicolas Foglia, Miquel Garcia-Rates, Ingolf Harden, Hagen Neugebauer, Anastasios Papadopoulos, 
  Christoph Riplinger, Bernardo de Souza, Georgi L. Stoychev                                                    
                                                                 
  APM, various basis sets, CI-OPT, improved COSX, DLPNO-Multilevel,           
  DOCKER, DRACO, updates on ESD, Fragmentator, GOAT, IRC, LR-CPCM, L-BFGS, MBIS, meta-GGA TD-DFT gradient, ML-optimized integration grids, 
  MM, NACMEs, nearIR, NEB, NEB-TS, NL-DFT gradient (VV10), 2- and 3-layer-ONIOM, interface openCOSMO-RS, QMMM,   
  Crystal-QMMM, RESP, rigid body optimization, SF, symmetry and pop. for TD-DFT, various functionals, SOLVATOR                                   
                                                                         
[Other institutions]                                                     
  V. Asgeirsson          : NEB                                           
  Christoph Bannwarth    : sTDA-DFT, sTD-DFT, PBEh-3c, B97-3c, D3        
  Giovanni Bistoni       : ETS/NOCV, ADLD/ADEX, COVALED                  
  Martin Brehm           : Molecular dynamics                            
  Ronald Cardenas        : ETS/NOCV                                      
  Martina Colucci        : COVALED                                       
  Sebastian Ehlert       : rSCAN, r2SCAN, r2SCAN-3c, D4, dhf basis sets  
  Marvin Friede          : D4 for Fr, Ra, Ac-Lr                          
  Lars Goerigk           : TD-DFT with DH, B97 family of functionals     
  Stefan Grimme          : VdW corrections, initial TS optimization, DFT functionals, gCP, sTDA/sTD-DF 
  Waldemar Hujo          : DFT-NL                                        
  H. Jonsson             : NEB                                           
  Holger Kruse           : gCP                                           
  Marcel Mueller         : wB97X-3c, vDZP basis set                      
  Hagen Neugebauer       : wr2SCAN, Native XTB                           
  Gianluca Regni         : ADLD/ADEX                                     
  Tobias Risthaus        : pre 6.0 range-separated hybrid DFT and stability analysis
  Lukas Wittmann         : regularized MP2, r2SCAN double-hybrids, wr2SCAN        
                                                                         
We gratefully acknowledge several colleagues who have allowed us to      
interface, adapt or use parts of their codes:                            
  Ed Valeev, F. Pavosevic, A. Kumar             : LibInt (2-el integral package), F12 methods 
  Garnet Chan, S. Sharma, J. Yang, R. Olivares  : DMRG                   
  Ulf Ekstrom                                   : XCFun DFT Library      
  Mihaly Kallay                                 : mrcc  (arbitrary order and MRCC methods)
  Frank Weinhold                                : gennbo (NPA and NBO analysis)           
  Simon Mueller                                 : openCOSMO-RS                            
  Christopher J. Cramer and Donald G. Truhlar   : smd solvation model                     
  S Lehtola, MJT Oliveira, MAL Marques          : LibXC Library                           
  Liviu Ungur et al                             : ANISO software                          


 Your calculation uses the libint2 library for the computation of 2-el integrals
 For citations please refer to: http://libint.valeyev.net

 Your ORCA version has been built with support for libXC version: 7.0.0
 For citations please refer to: https://libxc.gitlab.io

 This ORCA versions uses:
   CBLAS   interface :  Fast vector & matrix operations
   LAPACKE interface :  Fast linear algebra routines
   SCALAPACK package :  Parallel linear algebra routines
   Shared memory     :  Shared parallel matrices
   BLAS/LAPACK       :  OpenBLAS 0.3.29  USE64BITINT DYNAMIC_ARCH NO_AFFINITY Zen SINGLE_THREADED
        Core in use  :  Zen
   Copyright (c) 2011-2014, The OpenBLAS Project


  ***********************************
  * Starting time: Fri Apr 17 12:14:00 2026
  * Host name:     vmi3233575
  * Process ID:    330276
  * Working dir.:  /root/orca_b12_vps_pack/jobs/01_xtb/mult_1
  ***********************************

NOTE: MaxCore=500 MB was set to SCF,MP2,MDCI,CIPSI,MRCI,RASCI and CIS
      => If you want to overwrite this, your respective input block should be placed after the MaxCore statement


***************************************
The coordinates will be read from file: ../../../starts/double_ring_6_6_d2.10.xyz
***************************************


Your calculation utilizes the semiempirical GFN2-xTB method
Please cite in your paper:
Bannwarth, C.; Ehlert S.; Grimme, S. J. Chem. Theory Comput. 2019, 15, 1652.
   

================================================================================

================================================================================
                                        WARNINGS
                       Please study these warnings very carefully!
================================================================================


WARNING: Geometry Optimization
  ===> : Switching off AutoStart
         For restart on a previous wavefunction, please use MOREAD

WARNING: Found dipole moment calculation with XTB calculation
  ===> : Switching off dipole moment calculation

Environment variable XTBEXE for xtb has been set!

================================================================================
                                       INPUT FILE
================================================================================
NAME = double_ring_6_6_d2.10_m1.inp
|  1> ! GFN2-xTB TightSCF TightOpt
|  2> 
|  3> %pal
|  4>   nprocs 1
|  5> end
|  6> 
|  7> %maxcore 500
|  8> 
|  9> * xyzfile 0 1 ../../../starts/double_ring_6_6_d2.10.xyz
| 10> 
| 11>                          ****END OF INPUT****
================================================================================

                       *****************************
                       * Geometry Optimization Run *
                       *****************************

Geometry optimization settings:
Update method            Update   .... BFGS
Choice of coordinates    CoordSys .... (2022) Redundant Internals
Initial Hessian          InHess   .... Almloef's Model
Max. no of cycles        MaxIter  .... 50

Convergence Tolerances:
Energy Change            TolE     ....  1.0000e-06 Eh
Max. Gradient            TolMAXG  ....  1.0000e-04 Eh/bohr
RMS Gradient             TolRMSG  ....  3.0000e-05 Eh/bohr
Max. Displacement        TolMAXD  ....  1.0000e-03 bohr
RMS Displacement         TolRMSD  ....  6.0000e-04 bohr
Strict Convergence                .... False

------------------------------------------------------------------------------
                        ORCA OPTIMIZATION COORDINATE SETUP
------------------------------------------------------------------------------

The optimization will be done in redundant internal coordinates (2022)
Making redundant internal coordinates   ...  (2022 redundants) done
Evaluating the initial hessian          ...  (Almloef) done
Evaluating the coordinates              ...  done
Calculating the B-matrix                .... done
Calculating the G-matrix                .... done
The number of degrees of freedom        ....  240

    -----------------------------------------------------------------
                    Redundant Internal Coordinates


    -----------------------------------------------------------------
         Definition                    Initial Value    Approx d2E/dq
    -----------------------------------------------------------------
      1. B(B   1,B   0)                  2.1000         0.061747   
      2. B(B   2,B   1)                  2.1000         0.061747   
      3. B(B   3,B   2)                  2.1000         0.061747   
      4. B(B   4,B   3)                  2.1000         0.061747   
      5. B(B   5,B   0)                  2.1000         0.061747   
      6. B(B   5,B   4)                  2.1000         0.061747   
      7. B(B   6,B   1)                  2.9272         0.010000   
      8. B(B   6,B   0)                  2.9272         0.010000   
      9. B(B   7,B   6)                  1.9320         0.114458   
     10. B(B   7,B   1)                  2.9272         0.010000   
     11. B(B   7,B   2)                  2.9272         0.010000   
     12. B(B   8,B   2)                  2.9272         0.010000   
     13. B(B   8,B   3)                  2.9272         0.010000   
     14. B(B   8,B   7)                  1.9320         0.114458   
     15. B(B   9,B   4)                  2.9272         0.010000   
     16. B(B   9,B   3)                  2.9272         0.010000   
     17. B(B   9,B   8)                  1.9320         0.114458   
     18. B(B  10,B   4)                  2.9272         0.010000   
     19. B(B  10,B   5)                  2.9272         0.010000   
     20. B(B  10,B   9)                  1.9320         0.114458   
     21. B(B  11,B  10)                  1.9320         0.114458   
     22. B(B  11,B   6)                  1.9320         0.114458   
     23. B(B  11,B   0)                  2.9272         0.010000   
     24. B(B  11,B   5)                  2.9272         0.010000   
     25. A(B   1,B   0,B  11)          102.2917         0.152710   
     26. A(B   6,B   0,B  11)           38.5391         0.121027   
     27. A(B   5,B   0,B   6)          102.2917         0.152710   
     28. A(B   5,B   0,B  11)           68.9790         0.152710   
     29. A(B   1,B   0,B   6)           68.9790         0.152710   
     30. A(B   1,B   0,B   5)          120.0000         0.215735   
     31. A(B   2,B   1,B   7)           68.9790         0.152710   
     32. A(B   6,B   1,B   7)           38.5391         0.121027   
     33. A(B   2,B   1,B   6)          102.2917         0.152710   
     34. A(B   0,B   1,B   7)          102.2917         0.152710   
     35. A(B   0,B   1,B   2)          120.0000         0.215735   
     36. A(B   0,B   1,B   6)           68.9790         0.152710   
     37. A(B   1,B   2,B   8)          102.2917         0.152710   
     38. A(B   3,B   2,B   7)          102.2917         0.152710   
     39. A(B   1,B   2,B   7)           68.9790         0.152710   
     40. A(B   7,B   2,B   8)           38.5391         0.121027   
     41. A(B   1,B   2,B   3)          120.0000         0.215735   
     42. A(B   3,B   2,B   8)           68.9790         0.152710   
     43. A(B   2,B   3,B   4)          120.0000         0.215735   
     44. A(B   8,B   3,B   9)           38.5391         0.121027   
     45. A(B   4,B   3,B   8)          102.2917         0.152710   
     46. A(B   4,B   3,B   9)           68.9790         0.152710   
     47. A(B   2,B   3,B   8)           68.9790         0.152710   
     48. A(B   2,B   3,B   9)          102.2917         0.152710   
     49. A(B   9,B   4,B  10)           38.5391         0.121027   
     50. A(B   3,B   4,B  10)          102.2917         0.152710   
     51. A(B   3,B   4,B   5)          120.0000         0.215735   
     52. A(B   5,B   4,B   9)          102.2917         0.152710   
     53. A(B   3,B   4,B   9)           68.9790         0.152710   
     54. A(B   5,B   4,B  10)           68.9790         0.152710   
     55. A(B  10,B   5,B  11)           38.5391         0.121027   
     56. A(B   4,B   5,B  11)          102.2917         0.152710   
     57. A(B   4,B   5,B  10)           68.9790         0.152710   
     58. A(B   0,B   5,B  10)          102.2917         0.152710   
     59. A(B   0,B   5,B  11)           68.9790         0.152710   
     60. A(B   0,B   5,B   4)          120.0000         0.215735   
     61. A(B   1,B   6,B  11)          106.9352         0.162261   
     62. A(B   1,B   6,B   7)           70.7304         0.162261   
     63. A(B   7,B   6,B  11)          120.0000         0.256583   
     64. A(B   0,B   6,B   1)           42.0420         0.121027   
     65. A(B   0,B   6,B  11)           70.7304         0.162261   
     66. A(B   0,B   6,B   7)          106.9352         0.162261   
     67. A(B   6,B   7,B   8)          120.0000         0.256583   
     68. A(B   2,B   7,B   8)           70.7304         0.162261   
     69. A(B   1,B   7,B   2)           42.0420         0.121027   
     70. A(B   1,B   7,B   8)          106.9352         0.162261   
     71. A(B   1,B   7,B   6)           70.7304         0.162261   
     72. A(B   2,B   7,B   6)          106.9352         0.162261   
     73. A(B   3,B   8,B   7)          106.9352         0.162261   
     74. A(B   2,B   8,B   9)          106.9352         0.162261   
     75. A(B   2,B   8,B   7)           70.7304         0.162261   
     76. A(B   2,B   8,B   3)           42.0420         0.121027   
     77. A(B   3,B   8,B   9)           70.7304         0.162261   
     78. A(B   7,B   8,B   9)          120.0000         0.256583   
     79. A(B   4,B   9,B  10)           70.7304         0.162261   
     80. A(B   4,B   9,B   8)          106.9352         0.162261   
     81. A(B   3,B   9,B   4)           42.0420         0.121027   
     82. A(B   3,B   9,B  10)          106.9352         0.162261   
     83. A(B   3,B   9,B   8)           70.7304         0.162261   
     84. A(B   8,B   9,B  10)          120.0000         0.256583   
     85. A(B   4,B  10,B   5)           42.0420         0.121027   
     86. A(B   4,B  10,B  11)          106.9352         0.162261   
     87. A(B   4,B  10,B   9)           70.7304         0.162261   
     88. A(B   5,B  10,B  11)           70.7304         0.162261   
     89. A(B   5,B  10,B   9)          106.9352         0.162261   
     90. A(B   9,B  10,B  11)          120.0000         0.256583   
     91. A(B   5,B  11,B  10)           70.7304         0.162261   
     92. A(B   5,B  11,B   6)          106.9352         0.162261   
     93. A(B   0,B  11,B   5)           42.0420         0.121027   
     94. A(B   0,B  11,B  10)          106.9352         0.162261   
     95. A(B   6,B  11,B  10)          120.0000         0.256583   
     96. A(B   0,B  11,B   6)           70.7304         0.162261   
     97. D(B   2,B   1,B   0,B  11)    -72.6550         0.010000   
     98. D(B   2,B   1,B   0,B   5)      0.0000         0.010000   
     99. D(B   6,B   1,B   0,B  11)     19.7225         0.010000   
    100. D(B   2,B   1,B   0,B   6)    -92.3775         0.010000   
    101. D(B   7,B   1,B   0,B   5)     72.6550         0.010000   
    102. D(B   6,B   1,B   0,B   5)     92.3775         0.010000   
    103. D(B   8,B   2,B   1,B   7)    -19.7225         0.010000   
    104. D(B   3,B   2,B   1,B   6)    -72.6550         0.010000   
    105. D(B   3,B   2,B   1,B   0)      0.0000         0.010000   
    106. D(B   8,B   2,B   1,B   0)     72.6550         0.010000   
    107. D(B   8,B   2,B   1,B   6)      0.0000         0.010000   
    108. D(B   3,B   2,B   1,B   7)    -92.3775         0.010000   
    109. D(B   4,B   3,B   2,B   7)    -72.6550         0.010000   
    110. D(B   8,B   3,B   2,B   1)     92.3775         0.010000   
    111. D(B   4,B   3,B   2,B   8)    -92.3775         0.010000   
    112. D(B   4,B   3,B   2,B   1)      0.0000         0.010000   
    113. D(B   9,B   3,B   2,B   1)     72.6550         0.010000   
    114. D(B   8,B   3,B   2,B   7)     19.7225         0.010000   
    115. D(B   5,B   4,B   3,B   9)    -92.3775         0.010000   
    116. D(B   9,B   4,B   3,B   2)     92.3775         0.010000   
    117. D(B   5,B   4,B   3,B   2)      0.0000         0.010000   
    118. D(B   5,B   4,B   3,B   8)    -72.6550         0.010000   
    119. D(B   9,B   4,B   3,B   8)     19.7225         0.010000   
    120. D(B  10,B   4,B   3,B   2)     72.6550         0.010000   
    121. D(B   4,B   5,B   0,B  11)     92.3775         0.010000   
    122. D(B  11,B   5,B   0,B   6)    -19.7225         0.010000   
    123. D(B  10,B   5,B   0,B   1)    -72.6550         0.010000   
    124. D(B   4,B   5,B   0,B   6)     72.6550         0.010000   
    125. D(B   4,B   5,B   0,B   1)      0.0000         0.010000   
    126. D(B   0,B   5,B   4,B   3)      0.0000         0.010000   
    127. D(B  11,B   5,B   0,B   1)    -92.3775         0.010000   
    128. D(B  11,B   5,B   4,B   9)      0.0000         0.010000   
    129. D(B   0,B   5,B   4,B  10)    -92.3775         0.010000   
    130. D(B  11,B   5,B   4,B   3)     72.6550         0.010000   
    131. D(B  11,B   5,B   4,B  10)    -19.7225         0.010000   
    132. D(B   0,B   5,B   4,B   9)    -72.6550         0.010000   
    133. D(B   0,B   6,B   1,B   2)    117.6769         0.010000   
    134. D(B  11,B   6,B   1,B   2)     86.1959         0.010000   
    135. D(B  11,B   6,B   1,B   0)    -31.4810         0.010000   
    136. D(B   7,B   6,B   1,B   2)    -30.3704         0.010000   
    137. D(B   7,B   6,B   1,B   0)   -148.0473         0.010000   
    138. D(B   1,B   6,B   0,B   5)   -117.6769         0.010000   
    139. D(B   7,B   6,B   0,B  11)   -116.5664         0.010000   
    140. D(B   7,B   6,B   0,B   5)    -86.1959         0.010000   
    141. D(B   7,B   6,B   0,B   1)     31.4810         0.010000   
    142. D(B  11,B   6,B   1,B   7)    116.5664         0.010000   
    143. D(B  11,B   6,B   0,B   1)    148.0473         0.010000   
    144. D(B  11,B   6,B   0,B   5)     30.3704         0.010000   
    145. D(B   8,B   7,B   6,B   1)     98.8863         0.010000   
    146. D(B   8,B   7,B   6,B  11)      0.0000         0.010000   
    147. D(B   1,B   7,B   2,B   3)    117.6769         0.010000   
    148. D(B   6,B   7,B   2,B   1)    -31.4810         0.010000   
    149. D(B   6,B   7,B   2,B   3)     86.1959         0.010000   
    150. D(B   8,B   7,B   2,B   1)   -148.0473         0.010000   
    151. D(B   2,B   7,B   1,B   0)   -117.6769         0.010000   
    152. D(B   8,B   7,B   2,B   3)    -30.3704         0.010000   
    153. D(B   8,B   7,B   1,B   6)   -116.5664         0.010000   
    154. D(B   8,B   7,B   1,B   2)     31.4810         0.010000   
    155. D(B   6,B   7,B   2,B   8)    116.5664         0.010000   
    156. D(B   6,B   7,B   1,B   0)     30.3704         0.010000   
    157. D(B   6,B   7,B   1,B   2)    148.0473         0.010000   
    158. D(B   8,B   7,B   6,B   0)     77.1417         0.010000   
    159. D(B   8,B   7,B   1,B   0)    -86.1959         0.010000   
    160. D(B   2,B   7,B   6,B   0)      0.0000         0.010000   
    161. D(B   2,B   7,B   6,B   1)     21.7446         0.010000   
    162. D(B   2,B   7,B   6,B  11)    -77.1417         0.010000   
    163. D(B   3,B   8,B   7,B   6)    -77.1417         0.010000   
    164. D(B   2,B   8,B   7,B   1)    -21.7446         0.010000   
    165. D(B   2,B   8,B   7,B   6)    -98.8863         0.010000   
    166. D(B   9,B   8,B   7,B   1)     77.1417         0.010000   
    167. D(B   9,B   8,B   7,B   2)     98.8863         0.010000   
    168. D(B   2,B   8,B   3,B   4)    117.6769         0.010000   
    169. D(B   9,B   8,B   3,B   4)    -30.3704         0.010000   
    170. D(B   9,B   8,B   3,B   2)   -148.0473         0.010000   
    171. D(B   7,B   8,B   3,B   9)    116.5664         0.010000   
    172. D(B   7,B   8,B   3,B   4)     86.1959         0.010000   
    173. D(B   7,B   8,B   3,B   2)    -31.4810         0.010000   
    174. D(B   9,B   8,B   7,B   6)      0.0000         0.010000   
    175. D(B   3,B   8,B   2,B   1)   -117.6769         0.010000   
    176. D(B   9,B   8,B   2,B   1)    -86.1959         0.010000   
    177. D(B   7,B   8,B   2,B   3)    148.0473         0.010000   
    178. D(B   7,B   8,B   2,B   1)     30.3704         0.010000   
    179. D(B   9,B   8,B   2,B   7)   -116.5664         0.010000   
    180. D(B   9,B   8,B   2,B   3)     31.4810         0.010000   
    181. D(B   4,B   9,B   8,B   3)     21.7446         0.010000   
    182. D(B   4,B   9,B   8,B   2)      0.0000         0.010000   
    183. D(B   4,B   9,B   8,B   7)    -77.1417         0.010000   
    184. D(B  10,B   9,B   8,B   3)     98.8863         0.010000   
    185. D(B  10,B   9,B   8,B   2)     77.1417         0.010000   
    186. D(B  10,B   9,B   8,B   7)      0.0000         0.010000   
    187. D(B   3,B   9,B   4,B   5)    117.6769         0.010000   
    188. D(B  10,B   9,B   4,B   5)    -30.3704         0.010000   
    189. D(B  10,B   9,B   4,B   3)   -148.0473         0.010000   
    190. D(B   8,B   9,B   4,B  10)    116.5664         0.010000   
    191. D(B   8,B   9,B   4,B   5)     86.1959         0.010000   
    192. D(B   8,B   9,B   4,B   3)    -31.4810         0.010000   
    193. D(B   4,B   9,B   3,B   2)   -117.6769         0.010000   
    194. D(B  10,B   9,B   3,B   8)   -116.5664         0.010000   
    195. D(B  10,B   9,B   3,B   4)     31.4810         0.010000   
    196. D(B  10,B   9,B   3,B   2)    -86.1959         0.010000   
    197. D(B   8,B   9,B   3,B   4)    148.0473         0.010000   
    198. D(B   8,B   9,B   3,B   2)     30.3704         0.010000   
    199. D(B   5,B  10,B   9,B   3)      0.0000         0.010000   
    200. D(B   5,B  10,B   9,B   8)    -77.1417         0.010000   
    201. D(B  11,B  10,B   9,B   3)     77.1417         0.010000   
    202. D(B  11,B  10,B   9,B   4)     98.8863         0.010000   
    203. D(B  11,B  10,B   9,B   8)      0.0000         0.010000   
    204. D(B   4,B  10,B   5,B   0)    117.6769         0.010000   
    205. D(B  11,B  10,B   5,B   4)   -148.0473         0.010000   
    206. D(B  11,B  10,B   5,B   0)    -30.3704         0.010000   
    207. D(B   9,B  10,B   5,B  11)    116.5664         0.010000   
    208. D(B   9,B  10,B   5,B   4)    -31.4810         0.010000   
    209. D(B   9,B  10,B   5,B   0)     86.1959         0.010000   
    210. D(B   5,B  10,B   4,B   3)   -117.6769         0.010000   
    211. D(B  11,B  10,B   4,B   9)   -116.5664         0.010000   
    212. D(B  11,B  10,B   4,B   5)     31.4810         0.010000   
    213. D(B  11,B  10,B   4,B   3)    -86.1959         0.010000   
    214. D(B   5,B  10,B   9,B   4)     21.7446         0.010000   
    215. D(B   9,B  10,B   4,B   5)    148.0473         0.010000   
    216. D(B   9,B  10,B   4,B   3)     30.3704         0.010000   
    217. D(B   5,B  11,B   0,B   1)    117.6769         0.010000   
    218. D(B  10,B  11,B   0,B   6)    116.5664         0.010000   
    219. D(B  10,B  11,B   0,B   5)    -31.4810         0.010000   
    220. D(B  10,B  11,B   0,B   1)     86.1959         0.010000   
    221. D(B   6,B  11,B   0,B   5)   -148.0473         0.010000   
    222. D(B   6,B  11,B   5,B   0)     31.4810         0.010000   
    223. D(B   6,B  11,B   0,B   1)    -30.3704         0.010000   
    224. D(B   0,B  11,B  10,B   9)    -77.1417         0.010000   
    225. D(B   5,B  11,B  10,B   9)    -98.8863         0.010000   
    226. D(B   6,B  11,B  10,B   4)     77.1417         0.010000   
    227. D(B   6,B  11,B  10,B   5)     98.8863         0.010000   
    228. D(B   5,B  11,B   6,B   0)    -21.7446         0.010000   
    229. D(B   5,B  11,B   6,B   1)      0.0000         0.010000   
    230. D(B   5,B  11,B   6,B   7)     77.1417         0.010000   
    231. D(B  10,B  11,B   6,B   0)    -98.8863         0.010000   
    232. D(B  10,B  11,B   6,B   1)    -77.1417         0.010000   
    233. D(B  10,B  11,B   6,B   7)      0.0000         0.010000   
    234. D(B   6,B  11,B  10,B   9)      0.0000         0.010000   
    235. D(B   0,B  11,B   5,B   4)   -117.6769         0.010000   
    236. D(B  10,B  11,B   5,B   4)     30.3704         0.010000   
    237. D(B  10,B  11,B   5,B   0)    148.0473         0.010000   
    238. D(B   5,B  11,B  10,B   4)    -21.7446         0.010000   
    239. D(B   6,B  11,B   5,B  10)   -116.5664         0.010000   
    240. D(B   6,B  11,B   5,B   4)    -86.1959         0.010000   
    -----------------------------------------------------------------

Number of atoms                         .... 12
Number of degrees of freedom            .... 240


         *************************************************************
         *                GEOMETRY OPTIMIZATION CYCLE   1            *
         *************************************************************
---------------------------------
CARTESIAN COORDINATES (ANGSTROEM)
---------------------------------
  B     2.100000   -0.000000   -1.365000
  B     1.050000    1.818653   -1.365000
  B    -1.050000    1.818653   -1.365000
  B    -2.100000    0.000000   -1.365000
  B    -1.050000   -1.818653   -1.365000
  B     1.050000   -1.818653   -1.365000
  B     1.673161    0.966000    1.365000
  B     0.000000    1.932000    1.365000
  B    -1.673161    0.966000    1.365000
  B    -1.673161   -0.966000    1.365000
  B    -0.000000   -1.932000    1.365000
  B     1.673161   -0.966000    1.365000

----------------------------
CARTESIAN COORDINATES (A.U.)
----------------------------
  NO LB    ZA    FRAG    MASS        X           Y           Z
   0 B   5.0000    0    10.810    3.968425   -0.000000   -2.579476
   1 B   5.0000    0    10.810    1.984212    3.436757   -2.579476
   2 B   5.0000    0    10.810   -1.984212    3.436757   -2.579476
   3 B   5.0000    0    10.810   -3.968425    0.000000   -2.579476
   4 B   5.0000    0    10.810   -1.984212   -3.436757   -2.579476
   5 B   5.0000    0    10.810    1.984212   -3.436757   -2.579476
   6 B   5.0000    0    10.810    3.161816    1.825475    2.579476
   7 B   5.0000    0    10.810    0.000000    3.650951    2.579476
   8 B   5.0000    0    10.810   -3.161816    1.825475    2.579476
   9 B   5.0000    0    10.810   -3.161816   -1.825475    2.579476
  10 B   5.0000    0    10.810   -0.000000   -3.650951    2.579476
  11 B   5.0000    0    10.810    3.161816   -1.825475    2.579476

      -----------------------------------------------------------      
     |                   =====================                   |     
     |                           x T B                           |     
     |                   =====================                   |     
     |                         S. Grimme                         |     
     |          Mulliken Center for Theoretical Chemistry        |     
     |                    University of Bonn                     |     
      -----------------------------------------------------------      

   * xtb version 6.6.1 (unknown) compiled by 'builduser@buildhost' on 2023-08-07

   xtb is free software: you can redistribute it and/or modify it under
   the terms of the GNU Lesser General Public License as published by
   the Free Software Foundation, either version 3 of the License, or
   (at your option) any later version.
   
   xtb is distributed in the hope that it will be useful,
   but WITHOUT ANY WARRANTY; without even the implied warranty of
   MERCHANTABILITY or FITNESS FOR A PARTICULAR PURPOSE.  See the
   GNU Lesser General Public License for more details.
   
   Cite this work as:
   * C. Bannwarth, E. Caldeweyher, S. Ehlert, A. Hansen, P. Pracht,
     J. Seibert, S. Spicher, S. Grimme, WIREs Comput. Mol. Sci., 2020, 11,
     e01493. DOI: 10.1002/wcms.1493
   
   for GFN2-xTB:
   * C. Bannwarth, S. Ehlert and S. Grimme., J. Chem. Theory Comput., 2019,
     15, 1652-1671. DOI: 10.1021/acs.jctc.8b01176
   for GFN1-xTB:
   * S. Grimme, C. Bannwarth, P. Shushkov, J. Chem. Theory Comput., 2017,
     13, 1989-2009. DOI: 10.1021/acs.jctc.7b00118
   for GFN0-xTB:
   * P. Pracht, E. Caldeweyher, S. Ehlert, S. Grimme, ChemRxiv, 2019, preprint.
     DOI: 10.26434/chemrxiv.8326202.v1
   for GFN-FF:
   * S. Spicher and S. Grimme, Angew. Chem. Int. Ed., 2020, 59, 15665-15673.
     DOI: 10.1002/anie.202004239
   
   for ALPB and GBSA implicit solvation:
   * S. Ehlert, M. Stahn, S. Spicher, S. Grimme, J. Chem. Theory Comput.,
     2021, 17, 4250-4261. DOI: 10.1021/acs.jctc.1c00471
   
   for DFT-D4:
   * E. Caldeweyher, C. Bannwarth and S. Grimme, J. Chem. Phys., 2017,
     147, 034112. DOI: 10.1063/1.4993215
   * E. Caldeweyher, S. Ehlert, A. Hansen, H. Neugebauer, S. Spicher,
     C. Bannwarth and S. Grimme, J. Chem. Phys., 2019, 150, 154122.
     DOI: 10.1063/1.5090222
   * E. Caldeweyher, J.-M. Mewes, S. Ehlert and S. Grimme, Phys. Chem. Chem. Phys.
     2020, 22, 8499-8512. DOI: 10.1039/D0CP00502A
   
   for sTDA-xTB:
   * S. Grimme and C. Bannwarth, J. Chem. Phys., 2016, 145, 054103.
     DOI: 10.1063/1.4959605
   
   in the mass-spec context:
   * V. Asgeirsson, C. Bauer and S. Grimme, Chem. Sci., 2017, 8, 4879.
     DOI: 10.1039/c7sc00601b
   * J. Koopman and S. Grimme, ACS Omega 2019, 4, 12, 15120-15133.
     DOI: 10.1021/acsomega.9b02011
   
   for metadynamics refer to:
   * S. Grimme, J. Chem. Theory Comput., 2019, 155, 2847-2862
     DOI: 10.1021/acs.jctc.9b00143
   
   for SPH calculations refer to:
   * S. Spicher and S. Grimme, J. Chem. Theory Comput., 2021, 17, 1701-1714
     DOI: 10.1021/acs.jctc.0c01306
   
   with help from (in alphabetical order)
   P. Atkinson, C. Bannwarth, F. Bohle, G. Brandenburg, E. Caldeweyher
   M. Checinski, S. Dohm, S. Ehlert, S. Ehrlich, I. Gerasimov, C. Hölzer
   A. Katbashev, J. Koopman, C. Lavigne, S. Lehtola, F. März, M. Müller,
   F. Musil, H. Neugebauer, J. Pisarek, C. Plett, P. Pracht, F. Pultar,
   J. Seibert, P. Shushkov, S. Spicher, M. Stahn, M. Steiner, T. Strunk,
   J. Stückrath, T. Rose, and J. Unsleber
   
 * started run on 2026/04/17 at 12:14:01.112     

           -------------------------------------------------
          |                Calculation Setup                |
           -------------------------------------------------

          program call               : /usr/bin/xtb double_ring_6_6_d2.10_m1_XTB.xyz --grad -c 0 -u 0 -P 1 --namespace double_ring_6_6_d2.10_m1 --input double_ring_6_6_d2.10_m1_XTB.input.tmp --acc 0.200000
          calculation namespace      : double_ring_6_6_d2.10_m1
          coordinate file            : double_ring_6_6_d2.10_m1_XTB.xyz
          omp threads                :                     1

   ID    Z sym.   atoms
    1    5 B      1-12

molecular fragmentation (1/2 indicates fragments):
112222222222
# atoms in fragment 1/2:     2    10
 fragment masses (1/2) :       21.62      108.11
CMA distance (Bohr)    :   5.157
constraining FC (au)   :  0.0500

           -------------------------------------------------
          |                 G F N 2 - x T B                 |
           -------------------------------------------------

        Reference                      10.1021/acs.jctc.8b01176
      * Hamiltonian:
        H0-scaling (s, p, d)           1.850000    2.230000    2.230000
        zeta-weighting                 0.500000
      * Dispersion:
        s8                             2.700000
        a1                             0.520000
        a2                             5.000000
        s9                             5.000000
      * Repulsion:
        kExp                           1.500000    1.000000
        rExp                           1.000000
      * Coulomb:
        alpha                          2.000000
        third order                    shell-resolved
        anisotropic                    true
        a3                             3.000000
        a5                             4.000000
        cn-shift                       1.200000
        cn-exp                         4.000000
        max-rad                        5.000000


          ...................................................
          :                      SETUP                      :
          :.................................................:
          :  # basis functions                  48          :
          :  # atomic orbitals                  48          :
          :  # shells                           24          :
          :  # electrons                        36          :
          :  max. iterations                   250          :
          :  Hamiltonian                  GFN2-xTB          :
          :  restarted?                      false          :
          :  GBSA solvation                  false          :
          :  PC potential                    false          :
          :  electronic temp.          300.0000000     K    :
          :  accuracy                    0.2000000          :
          :  -> integral cutoff          0.3198970E+02      :
          :  -> integral neglect         0.2000000E-08      :
          :  -> SCF convergence          0.2000000E-06 Eh   :
          :  -> wf. convergence          0.2000000E-04 e    :
          :  Broyden damping             0.4000000          :
          ...................................................

 iter      E             dE          RMSdq      gap      omega  full diag
   1    -13.2950410 -0.132950E+02  0.249E+01    0.00       0.0  T
   2     -9.9955356  0.329951E+01  0.180E+01    0.84       1.0  T
   3     26.1809753  0.361765E+02  0.341E+01    3.67       1.0  T
   4    -12.4455686 -0.386265E+02  0.993E+00    0.01       1.0  T
   5    -12.9747245 -0.529156E+00  0.531E+00    0.00       1.0  T
   6    -12.9905735 -0.158490E-01  0.520E+00    0.00       1.0  T
   7    -13.2181070 -0.227533E+00  0.303E+00    0.00       1.0  T
   8    -13.3132588 -0.951518E-01  0.198E+00    0.00       1.0  T
   9    -13.3717747 -0.585159E-01  0.404E-01    0.00       1.0  T
  10    -13.3552389  0.165358E-01  0.120E+00    0.03       1.0  T
  11    -13.3719671 -0.167282E-01  0.137E-01    0.00       1.0  T
  12    -13.3718468  0.120359E-03  0.189E-01    0.00       1.0  T
  13    -13.3694433  0.240345E-02  0.374E-01    0.00       1.0  T
  14    -13.3721415 -0.269821E-02  0.476E-02    0.00       1.0  T
  15    -13.3721566 -0.150989E-04  0.394E-02    0.00       1.0  T
  16    -13.3721712 -0.145369E-04  0.161E-02    0.00       1.8  T
  17    -13.3721701  0.104071E-05  0.142E-02    0.00       2.0  T
  18    -13.3721719 -0.179641E-05  0.793E-03    0.00       3.6  T
  19    -13.3721716  0.353554E-06  0.842E-03    0.00       3.4  T
  20    -13.3721715  0.755499E-07  0.826E-03    0.00       3.5  T
  21    -13.3721720 -0.554821E-06  0.142E-03    0.00      20.3  T
  22    -13.3721721 -0.681536E-08  0.125E-03    0.00      23.1  T
  23    -13.3721721 -0.191030E-07  0.675E-04    0.00      42.8  T
  24    -13.3721721  0.222173E-09  0.528E-04    0.00      54.7  T
  25    -13.3721721  0.447654E-09  0.549E-04    0.00      52.6  T
  26    -13.3721721 -0.159185E-08  0.470E-04    0.00      61.5  T
  27    -13.3721721 -0.378565E-08  0.169E-04    0.00     170.8  T
  28    -13.3721721  0.951061E-10  0.175E-04    0.00     165.0  T

   *** convergence criteria satisfied after 28 iterations ***

         #    Occupation            Energy/Eh            Energy/eV
      -------------------------------------------------------------
         1        2.0000           -0.3722739             -10.1301
       ...           ...                  ...                  ...
        12        2.0000           -0.2857897              -7.7767
        13        2.0000           -0.2708439              -7.3700
        14        2.0000           -0.2480610              -6.7501
        15        2.0000           -0.2405602              -6.5460
        16        2.0000           -0.2405602              -6.5460
        17        2.0000           -0.2336555              -6.3581
        18        0.9970           -0.2167338              -5.8976 (HOMO)
        19        0.9970           -0.2167338              -5.8976 (LUMO)
        20        0.0060           -0.2112185              -5.7475
        21        0.0000           -0.2046398              -5.5685
        22        0.0000           -0.2046398              -5.5685
        23                         -0.1932067              -5.2574
       ...                                ...                  ...
        48                          0.1915242               5.2116
      -------------------------------------------------------------
                  HL-Gap            0.0000000 Eh            0.0000 eV
             Fermi-level           -0.2167395 Eh           -5.8978 eV

 SCC (total)                   0 d,  0 h,  0 min,  0.034 sec
 SCC setup                      ...        0 min,  0.000 sec (  0.702%)
 Dispersion                     ...        0 min,  0.000 sec (  0.587%)
 classical contributions        ...        0 min,  0.000 sec (  0.103%)
 integral evaluation            ...        0 min,  0.003 sec (  8.392%)
 iterations                     ...        0 min,  0.026 sec ( 74.198%)
 molecular gradient             ...        0 min,  0.005 sec ( 15.043%)
 printout                       ...        0 min,  0.000 sec (  0.894%)

         :::::::::::::::::::::::::::::::::::::::::::::::::::::
         ::                     SUMMARY                     ::
         :::::::::::::::::::::::::::::::::::::::::::::::::::::
         :: total energy             -13.364701664377 Eh    ::
         :: gradient norm              0.304027297591 Eh/a0 ::
         :: HOMO-LUMO gap              0.000000384866 eV    ::
         ::.................................................::
         :: SCC energy               -13.372172078634 Eh    ::
         :: -> isotropic ES            0.073928938767 Eh    ::
         :: -> anisotropic ES          0.020507981463 Eh    ::
         :: -> anisotropic XC         -0.049018861446 Eh    ::
         :: -> dispersion             -0.023427188366 Eh    ::
         :: repulsion energy           0.007353519835 Eh    ::
         :: add. restraining           0.000000000000 Eh    ::
         :: total charge              -0.000000000000 e     ::
         :::::::::::::::::::::::::::::::::::::::::::::::::::::


Property printout bound to 'properties.out'

           -------------------------------------------------
          | TOTAL ENERGY              -13.364701664377 Eh   |
          | GRADIENT NORM               0.304027297591 Eh/α |
          | HOMO-LUMO GAP               0.000000384866 eV   |
           -------------------------------------------------

------------------------------------------------------------------------
 * finished run on 2026/04/17 at 12:14:01.162     
------------------------------------------------------------------------
 total:
 * wall-time:     0 d,  0 h,  0 min,  0.051 sec
 *  cpu-time:     0 d,  0 h,  0 min,  0.050 sec
 * ratio c/w:     0.995 speedup
 SCF:
 * wall-time:     0 d,  0 h,  0 min,  0.035 sec
 *  cpu-time:     0 d,  0 h,  0 min,  0.034 sec
 * ratio c/w:     0.993 speedup


-------------------------   --------------------
FINAL SINGLE POINT ENERGY       -13.364701664380
-------------------------   --------------------


-------------
DIPOLE MOMENT
-------------
                                X             Y             Z
Total Dipole Moment    :     -0.00000      -0.00000       0.10500
                        -----------------------------------------
Magnitude (a.u.)       :      0.10500
Magnitude (Debye)      :      0.26689


------------------
CARTESIAN GRADIENT
------------------

   1   B   :    0.087786738    0.000000005   -0.020022972
   2   B   :    0.043893392    0.076025516   -0.020022988
   3   B   :   -0.043893385    0.076025524   -0.020022991
   4   B   :   -0.087786736   -0.000000006   -0.020022974
   5   B   :   -0.043893394   -0.076025515   -0.020022987
   6   B   :    0.043893385   -0.076025524   -0.020022992
   7   B   :    0.071922281    0.041524319    0.020022979
   8   B   :    0.000000001    0.083048678    0.020022994
   9   B   :   -0.071922280    0.041524318    0.020022980
  10   B   :   -0.071922280   -0.041524320    0.020022978
  11   B   :   -0.000000002   -0.083048677    0.020022995
  12   B   :    0.071922281   -0.041524318    0.020022980

Difference to translation invariance:
           :   -0.0000000000   -0.0000000000   -0.0000000000

Difference to rotation invariance:
           :    0.0000000002    0.0000000003   -0.0000000511

Norm of the Cartesian gradient     ...    0.3040272976
RMS gradient                       ...    0.0506712163
MAX gradient                       ...    0.0877867377
------------------------------------------------------------------------------
                         ORCA GEOMETRY RELAXATION STEP
------------------------------------------------------------------------------

Reading the OPT-File                    .... done
Getting information on internals        .... done
Copying old internal coords+grads       .... done
Making the new internal coordinates     .... (2022 redundants) done
Validating the new internal coordinates .... (2022 redundants) done
Calculating the B-matrix                .... done
Calculating the G,G- and P matrices     .... done
Transforming gradient to internals      .... done
Projecting the internal gradient        .... done
Number of atoms                         ....  12
Number of internal coordinates          .... 240
Current Energy                          ....   -13.364701664 Eh
Current gradient norm                   ....     0.304027298 Eh/bohr
Maximum allowed component of the step   ....  0.300
Current trust radius                    ....  0.300
Evaluating the initial hessian          ....  (Almloef) done
Projecting the Hessian                  .... done
Forming the augmented Hessian           .... done
Diagonalizing the augmented Hessian     .... done
Last element of RFO vector              ....  0.756039126
Lowest eigenvalues of augmented Hessian:
 -0.242953108  0.016218006  0.022925751  0.023420938  0.023600742
Length of the computed step             ....  0.865730888
Warning: the length of the step is outside the trust region - taking restricted step instead
The input lambda is                     ....     0.012354
   iter:   5  x=    0.005247  g=47611.322484 f(x)=   137.605292
   iter:  10  x=   -0.131626  g=   57.862324 f(x)=     3.737709
   iter:  15  x=   -0.823528  g=    0.314385 f(x)=     0.035004
   iter:  20  x=   -0.854196  g=    0.191971 f(x)=    -0.000000
The output lambda is                    ....    -0.854196 (20 iterations)
The final length of the internal step   ....  0.300000000
Converting the step to Cartesian space:
 Initial RMS(Int)=    0.0193649167
Transforming coordinates:
 Iter   0:  RMS(Cart)=    0.0474157056 RMS(Int)=    0.0193616239
done
Storing new coordinates                 .... done

                                .--------------------.
          ----------------------|Geometry convergence|-------------------------
          Item                value                   Tolerance       Converged
          ---------------------------------------------------------------------
          RMS gradient        0.0181780857            0.0000300000      NO
          MAX gradient        0.0786969989            0.0001000000      NO
          RMS step            0.0193649167            0.0006000000      NO
          MAX step            0.0851090162            0.0010000000      NO
          -------------------------------------------------------------------------
          ........................................................
          Max(Bonds)      0.0450      Max(Angles)    0.81
          Max(Dihed)        0.44      Max(Improp)    0.00
          ---------------------------------------------------------------------

The optimization has not yet converged - more geometry cycles are needed


    ---------------------------------------------------------------------------
                         Redundant Internal Coordinates
                            (Angstroem and degrees)

        Definition                    Value    dE/dq     Step     New-Value
    ----------------------------------------------------------------------------
     1. B(B   1,B   0)                2.1000  0.078375 -0.0449    2.0551   
     2. B(B   2,B   1)                2.1000  0.077375 -0.0443    2.0557   
     3. B(B   3,B   2)                2.1000  0.078437 -0.0449    2.0551   
     4. B(B   4,B   3)                2.1000  0.078697 -0.0450    2.0550   
     5. B(B   5,B   0)                2.1000  0.078236 -0.0448    2.0552   
     6. B(B   5,B   4)                2.1000  0.078405 -0.0449    2.0551   
     7. B(B   6,B   1)                2.9272  0.014799 -0.0091    2.9181   
     8. B(B   6,B   0)                2.9272  0.014562 -0.0089    2.9182   
     9. B(B   7,B   6)                1.9320  0.077171 -0.0425    1.8895   
    10. B(B   7,B   1)                2.9272  0.015204 -0.0093    2.9178   
    11. B(B   7,B   2)                2.9272  0.015032 -0.0092    2.9179   
    12. B(B   8,B   2)                2.9272  0.015142 -0.0093    2.9179   
    13. B(B   8,B   3)                2.9272  0.015000 -0.0092    2.9180   
    14. B(B   8,B   7)                1.9320  0.076175 -0.0420    1.8900   
    15. B(B   9,B   4)                2.9272  0.014695 -0.0090    2.9181   
    16. B(B   9,B   3)                2.9272  0.014800 -0.0091    2.9181   
    17. B(B   9,B   8)                1.9320  0.076284 -0.0421    1.8899   
    18. B(B  10,B   4)                2.9272  0.015052 -0.0093    2.9179   
    19. B(B  10,B   5)                2.9272  0.015125 -0.0093    2.9179   
    20. B(B  10,B   9)                1.9320  0.076109 -0.0420    1.8900   
    21. B(B  11,B  10)                1.9320  0.075823 -0.0418    1.8902   
    22. B(B  11,B   6)                1.9320  0.076091 -0.0420    1.8900   
    23. B(B  11,B   0)                2.9272  0.015294 -0.0094    2.9178   
    24. B(B  11,B   5)                2.9272  0.015197 -0.0093    2.9179   
    25. A(B   1,B   0,B  11)          102.29  0.004448   -0.25    102.05   
    26. A(B   6,B   0,B  11)           38.54  0.012685   -0.75     37.79   
    27. A(B   5,B   0,B   6)          102.29  0.004452   -0.25    102.05   
    28. A(B   5,B   0,B  11)           68.98 -0.006540    0.40     69.38   
    29. A(B   1,B   0,B   6)           68.98 -0.006514    0.40     69.38   
    30. A(B   1,B   0,B   5)          120.00  0.000427   -0.02    119.98   
    31. A(B   2,B   1,B   7)           68.98 -0.006483    0.40     69.38   
    32. A(B   6,B   1,B   7)           38.54  0.012883   -0.76     37.78   
    33. A(B   2,B   1,B   6)          102.29  0.004570   -0.25    102.04   
    34. A(B   0,B   1,B   7)          102.29  0.004325   -0.24    102.06   
    35. A(B   0,B   1,B   2)          120.00 -0.000417    0.02    120.02   
    36. A(B   0,B   1,B   6)           68.98 -0.006625    0.41     69.39   
    37. A(B   1,B   2,B   8)          102.29  0.004633   -0.26    102.03   
    38. A(B   3,B   2,B   7)          102.29  0.004283   -0.24    102.06   
    39. A(B   1,B   2,B   7)           68.98 -0.006402    0.39     69.37   
    40. A(B   7,B   2,B   8)           38.54  0.012681   -0.75     37.79   
    41. A(B   1,B   2,B   3)          120.00  0.000294   -0.02    119.98   
    42. A(B   3,B   2,B   8)           68.98 -0.006582    0.40     69.38   
    43. A(B   2,B   3,B   4)          120.00  0.000135   -0.01    119.99   
    44. A(B   8,B   3,B   9)           38.54  0.012726   -0.75     37.79   
    45. A(B   4,B   3,B   8)          102.29  0.004486   -0.25    102.04   
    46. A(B   4,B   3,B   9)           68.98 -0.006621    0.40     69.38   
    47. A(B   2,B   3,B   8)           68.98 -0.006515    0.40     69.38   
    48. A(B   2,B   3,B   9)          102.29  0.004306   -0.24    102.05   
    49. A(B   9,B   4,B  10)           38.54  0.012696   -0.75     37.79   
    50. A(B   3,B   4,B  10)          102.29  0.004219   -0.23    102.06   
    51. A(B   3,B   4,B   5)          120.00 -0.000398    0.02    120.02   
    52. A(B   5,B   4,B   9)          102.29  0.004378   -0.24    102.05   
    53. A(B   3,B   4,B   9)           68.98 -0.006571    0.40     69.38   
    54. A(B   5,B   4,B  10)           68.98 -0.006527    0.40     69.38   
    55. A(B  10,B   5,B  11)           38.54  0.012605   -0.74     37.80   
    56. A(B   4,B   5,B  11)          102.29  0.004419   -0.24    102.05   
    57. A(B   4,B   5,B  10)           68.98 -0.006561    0.40     69.38   
    58. A(B   0,B   5,B  10)          102.29  0.004187   -0.23    102.06   
    59. A(B   0,B   5,B  11)           68.98 -0.006494    0.40     69.38   
    60. A(B   0,B   5,B   4)          120.00 -0.000042    0.00    120.00   
    61. A(B   1,B   6,B  11)          106.94  0.005085   -0.33    106.61   
    62. A(B   1,B   6,B   7)           70.73 -0.006337    0.37     71.10   
    63. A(B   7,B   6,B  11)          120.00 -0.000244    0.01    120.01   
    64. A(B   0,B   6,B   1)           42.04  0.013139   -0.81     41.24   
    65. A(B   0,B   6,B  11)           70.73 -0.006153    0.36     71.09   
    66. A(B   0,B   6,B   7)          106.94  0.004705   -0.31    106.63   
    67. A(B   6,B   7,B   8)          120.00  0.000375   -0.02    119.98   
    68. A(B   2,B   7,B   8)           70.73 -0.006312    0.37     71.10   
    69. A(B   1,B   7,B   2)           42.04  0.012885   -0.79     41.25   
    70. A(B   1,B   7,B   8)          106.94  0.004812   -0.31    106.63   
    71. A(B   1,B   7,B   6)           70.73 -0.006546    0.39     71.12   
    72. A(B   2,B   7,B   6)          106.94  0.004416   -0.29    106.65   
    73. A(B   3,B   8,B   7)          106.94  0.004740   -0.31    106.63   
    74. A(B   2,B   8,B   9)          106.94  0.004611   -0.30    106.64   
    75. A(B   2,B   8,B   7)           70.73 -0.006369    0.37     71.10   
    76. A(B   2,B   8,B   3)           42.04  0.013097   -0.80     41.24   
    77. A(B   3,B   8,B   9)           70.73 -0.006414    0.38     71.11   
    78. A(B   7,B   8,B   9)          120.00 -0.000453    0.03    120.03   
    79. A(B   4,B   9,B  10)           70.73 -0.006256    0.37     71.10   
    80. A(B   4,B   9,B   8)          106.94  0.005098   -0.33    106.61   
    81. A(B   3,B   9,B   4)           42.04  0.013192   -0.81     41.23   
    82. A(B   3,B   9,B  10)          106.94  0.004831   -0.31    106.62   
    83. A(B   3,B   9,B   8)           70.73 -0.006311    0.37     71.10   
    84. A(B   8,B   9,B  10)          120.00  0.000089   -0.00    120.00   
    85. A(B   4,B  10,B   5)           42.04  0.013088   -0.80     41.24   
    86. A(B   4,B  10,B  11)          106.94  0.005015   -0.32    106.61   
    87. A(B   4,B  10,B   9)           70.73 -0.006440    0.38     71.11   
    88. A(B   5,B  10,B  11)           70.73 -0.006284    0.37     71.10   
    89. A(B   5,B  10,B   9)          106.94  0.004701   -0.30    106.63   
    90. A(B   9,B  10,B  11)          120.00  0.000403   -0.02    119.98   
    91. A(B   5,B  11,B  10)           70.73 -0.006321    0.37     71.10   
    92. A(B   5,B  11,B   6)          106.94  0.004675   -0.30    106.63   
    93. A(B   0,B  11,B   5)           42.04  0.013034   -0.80     41.24   
    94. A(B   0,B  11,B  10)          106.94  0.004606   -0.30    106.64   
    95. A(B   6,B  11,B  10)          120.00 -0.000171    0.01    120.01   
    96. A(B   0,B  11,B   6)           70.73 -0.006532    0.39     71.12   
    97. D(B   2,B   1,B   0,B  11)    -72.65  0.004766   -0.31    -72.96   
    98. D(B   2,B   1,B   0,B   5)      0.00 -0.000383    0.02      0.02   
    99. D(B   6,B   1,B   0,B  11)     19.72  0.006722   -0.39     19.33   
   100. D(B   2,B   1,B   0,B   6)    -92.38 -0.001955    0.08    -92.29   
   101. D(B   7,B   1,B   0,B   5)     72.65 -0.005574    0.35     73.01   
   102. D(B   6,B   1,B   0,B   5)     92.38  0.001572   -0.06     92.31   
   103. D(B   8,B   2,B   1,B   7)    -19.72 -0.006583    0.39    -19.34   
   104. D(B   3,B   2,B   1,B   6)    -72.65  0.005486   -0.35    -73.00   
   105. D(B   3,B   2,B   1,B   0)      0.00  0.000262   -0.01     -0.01   
   106. D(B   8,B   2,B   1,B   0)     72.65 -0.004843    0.31     72.97   
   107. D(B   8,B   2,B   1,B   6)      0.00  0.000380   -0.02     -0.02   
   108. D(B   3,B   2,B   1,B   7)    -92.38 -0.001478    0.06    -92.32   
   109. D(B   4,B   3,B   2,B   7)    -72.65  0.005169   -0.33    -72.99   
   110. D(B   8,B   3,B   2,B   1)     92.38  0.001800   -0.08     92.30   
   111. D(B   4,B   3,B   2,B   8)    -92.38 -0.001717    0.07    -92.30   
   112. D(B   4,B   3,B   2,B   1)      0.00  0.000083   -0.01     -0.01   
   113. D(B   9,B   3,B   2,B   1)     72.65 -0.005251    0.33     72.99   
   114. D(B   8,B   3,B   2,B   7)     19.72  0.006886   -0.40     19.32   
   115. D(B   5,B   4,B   3,B   9)    -92.38 -0.001747    0.07    -92.30   
   116. D(B   9,B   4,B   3,B   2)     92.38  0.001440   -0.06     92.32   
   117. D(B   5,B   4,B   3,B   2)      0.00 -0.000307    0.02      0.02   
   118. D(B   5,B   4,B   3,B   8)    -72.65  0.004807   -0.31    -72.97   
   119. D(B   9,B   4,B   3,B   8)     19.72  0.006555   -0.38     19.34   
   120. D(B  10,B   4,B   3,B   2)     72.65 -0.005605    0.36     73.01   
   121. D(B   4,B   5,B   0,B  11)     92.38  0.001712   -0.07     92.30   
   122. D(B  11,B   5,B   0,B   6)    -19.72 -0.006670    0.39    -19.33   
   123. D(B  10,B   5,B   0,B   1)    -72.65  0.005497   -0.35    -73.00   
   124. D(B   4,B   5,B   0,B   6)     72.65 -0.004958    0.32     72.97   
   125. D(B   4,B   5,B   0,B   1)      0.00  0.000159   -0.01     -0.01   
   126. D(B   0,B   5,B   4,B   3)      0.00  0.000186   -0.01     -0.01   
   127. D(B  11,B   5,B   0,B   1)    -92.38 -0.001552    0.06    -92.31   
   128. D(B  11,B   5,B   4,B   9)      0.00  0.000315   -0.02     -0.02   
   129. D(B   0,B   5,B   4,B  10)    -92.38 -0.001393    0.05    -92.32   
   130. D(B  11,B   5,B   4,B   3)     72.65 -0.004949    0.32     72.98   
   131. D(B  11,B   5,B   4,B  10)    -19.72 -0.006528    0.38    -19.34   
   132. D(B   0,B   5,B   4,B   9)    -72.65  0.005450   -0.35    -73.00   
   133. D(B   0,B   6,B   1,B   2)    117.68 -0.002202    0.12    117.80   
   134. D(B  11,B   6,B   1,B   2)     86.20 -0.002969    0.18     86.37   
   135. D(B  11,B   6,B   1,B   0)    -31.48 -0.000767    0.05    -31.43   
   136. D(B   7,B   6,B   1,B   2)    -30.37 -0.000445    0.02    -30.35   
   137. D(B   7,B   6,B   1,B   0)   -148.05  0.001757   -0.10   -148.15   
   138. D(B   1,B   6,B   0,B   5)   -117.68  0.001255   -0.07   -117.75   
   139. D(B   7,B   6,B   0,B  11)   -116.57  0.002403   -0.15   -116.71   
   140. D(B   7,B   6,B   0,B   5)    -86.20  0.002501   -0.15    -86.35   
   141. D(B   7,B   6,B   0,B   1)     31.48  0.001246   -0.08     31.40   
   142. D(B  11,B   6,B   1,B   7)    116.57 -0.002524    0.16    116.72   
   143. D(B  11,B   6,B   0,B   1)    148.05 -0.001157    0.07    148.12   
   144. D(B  11,B   6,B   0,B   5)     30.37  0.000098   -0.00     30.37   
   145. D(B   8,B   7,B   6,B   1)     98.89  0.002134   -0.16     98.73   
   146. D(B   8,B   7,B   6,B  11)      0.00 -0.000597    0.04      0.04   
   147. D(B   1,B   7,B   2,B   3)    117.68 -0.001338    0.07    117.75   
   148. D(B   6,B   7,B   2,B   1)    -31.48 -0.000803    0.05    -31.43   
   149. D(B   6,B   7,B   2,B   3)     86.20 -0.002141    0.13     86.32   
   150. D(B   8,B   7,B   2,B   1)   -148.05  0.000894   -0.05   -148.10   
   151. D(B   2,B   7,B   1,B   0)   -117.68  0.002118   -0.12   -117.80   
   152. D(B   8,B   7,B   2,B   3)    -30.37 -0.000444    0.02    -30.35   
   153. D(B   8,B   7,B   1,B   6)   -116.57  0.001830   -0.11   -116.68   
   154. D(B   8,B   7,B   1,B   2)     31.48  0.000424   -0.03     31.45   
   155. D(B   6,B   7,B   2,B   8)    116.57 -0.001697    0.11    116.67   
   156. D(B   6,B   7,B   1,B   0)     30.37  0.000711   -0.04     30.33   
   157. D(B   6,B   7,B   1,B   2)    148.05 -0.001407    0.08    148.13   
   158. D(B   8,B   7,B   6,B   0)     77.14 -0.005373    0.30     77.45   
   159. D(B   8,B   7,B   1,B   0)    -86.20  0.002541   -0.15    -86.35   
   160. D(B   2,B   7,B   6,B   0)      0.00 -0.000372    0.02      0.02   
   161. D(B   2,B   7,B   6,B   1)     21.74  0.007135   -0.44     21.31   
   162. D(B   2,B   7,B   6,B  11)    -77.14  0.004405   -0.24    -77.38   
   163. D(B   3,B   8,B   7,B   6)    -77.14  0.005520   -0.31    -77.45   
   164. D(B   2,B   8,B   7,B   1)    -21.74 -0.006855    0.42    -21.32   
   165. D(B   2,B   8,B   7,B   6)    -98.89 -0.001788    0.14    -98.75   
   166. D(B   9,B   8,B   7,B   1)     77.14 -0.004649    0.26     77.40   
   167. D(B   9,B   8,B   7,B   2)     98.89  0.002207   -0.16     98.72   
   168. D(B   2,B   8,B   3,B   4)    117.68 -0.001579    0.09    117.77   
   169. D(B   9,B   8,B   3,B   4)    -30.37  0.000138   -0.01    -30.38   
   170. D(B   9,B   8,B   3,B   2)   -148.05  0.001717   -0.10   -148.15   
   171. D(B   7,B   8,B   3,B   9)    116.57 -0.002679    0.16    116.73   
   172. D(B   7,B   8,B   3,B   4)     86.20 -0.002540    0.15     86.35   
   173. D(B   7,B   8,B   3,B   2)    -31.48 -0.000962    0.06    -31.42   
   174. D(B   9,B   8,B   7,B   6)      0.00  0.000419   -0.03     -0.03   
   175. D(B   3,B   8,B   2,B   1)   -117.68  0.001458   -0.08   -117.76   
   176. D(B   9,B   8,B   2,B   1)    -86.20  0.002630   -0.16    -86.35   
   177. D(B   7,B   8,B   2,B   3)    148.05 -0.001468    0.09    148.13   
   178. D(B   7,B   8,B   2,B   1)     30.37 -0.000010    0.01     30.38   
   179. D(B   9,B   8,B   2,B   7)   -116.57  0.002641   -0.16   -116.73   
   180. D(B   9,B   8,B   2,B   3)     31.48  0.001172   -0.07     31.41   
   181. D(B   4,B   9,B   8,B   3)     21.74  0.006985   -0.43     21.32   
   182. D(B   4,B   9,B   8,B   2)      0.00 -0.000466    0.03      0.03   
   183. D(B   4,B   9,B   8,B   7)    -77.14  0.004649   -0.26    -77.40   
   184. D(B  10,B   9,B   8,B   3)     98.89  0.002355   -0.17     98.71   
   185. D(B  10,B   9,B   8,B   2)     77.14 -0.005096    0.28     77.42   
   186. D(B  10,B   9,B   8,B   7)      0.00  0.000019   -0.00     -0.00   
   187. D(B   3,B   9,B   4,B   5)    117.68 -0.002118    0.12    117.80   
   188. D(B  10,B   9,B   4,B   5)    -30.37 -0.000376    0.02    -30.35   
   189. D(B  10,B   9,B   4,B   3)   -148.05  0.001743   -0.10   -148.15   
   190. D(B   8,B   9,B   4,B  10)    116.57 -0.002157    0.13    116.70   
   191. D(B   8,B   9,B   4,B   5)     86.20 -0.002533    0.15     86.35   
   192. D(B   8,B   9,B   4,B   3)    -31.48 -0.000414    0.03    -31.45   
   193. D(B   4,B   9,B   3,B   2)   -117.68  0.001526   -0.08   -117.76   
   194. D(B  10,B   9,B   3,B   8)   -116.57  0.002102   -0.13   -116.70   
   195. D(B  10,B   9,B   3,B   4)     31.48  0.001272   -0.08     31.40   
   196. D(B  10,B   9,B   3,B   2)    -86.20  0.002798   -0.17    -86.36   
   197. D(B   8,B   9,B   3,B   4)    148.05 -0.000830    0.05    148.10   
   198. D(B   8,B   9,B   3,B   2)     30.37  0.000696   -0.04     30.34   
   199. D(B   5,B  10,B   9,B   3)      0.00 -0.000300    0.02      0.02   
   200. D(B   5,B  10,B   9,B   8)    -77.14  0.004535   -0.25    -77.39   
   201. D(B  11,B  10,B   9,B   3)     77.14 -0.005114    0.29     77.43   
   202. D(B  11,B  10,B   9,B   4)     98.89  0.002422   -0.17     98.71   
   203. D(B  11,B  10,B   9,B   8)      0.00 -0.000279    0.02      0.02   
   204. D(B   4,B  10,B   5,B   0)    117.68 -0.001675    0.09    117.77   
   205. D(B  11,B  10,B   5,B   4)   -148.05  0.000888   -0.05   -148.10   
   206. D(B  11,B  10,B   5,B   0)    -30.37 -0.000787    0.04    -30.33   
   207. D(B   9,B  10,B   5,B  11)    116.57 -0.001730    0.11    116.67   
   208. D(B   9,B  10,B   5,B   4)    -31.48 -0.000842    0.05    -31.43   
   209. D(B   9,B  10,B   5,B   0)     86.20 -0.002517    0.15     86.34   
   210. D(B   5,B  10,B   4,B   3)   -117.68  0.002066   -0.12   -117.79   
   211. D(B  11,B  10,B   4,B   9)   -116.57  0.001831   -0.11   -116.68   
   212. D(B  11,B  10,B   4,B   5)     31.48  0.000461   -0.03     31.45   
   213. D(B  11,B  10,B   4,B   3)    -86.20  0.002527   -0.15    -86.35   
   214. D(B   5,B  10,B   9,B   4)     21.74  0.007236   -0.44     21.30   
   215. D(B   9,B  10,B   4,B   5)    148.05 -0.001369    0.08    148.13   
   216. D(B   9,B  10,B   4,B   3)     30.37  0.000696   -0.04     30.33   
   217. D(B   5,B  11,B   0,B   1)    117.68 -0.001255    0.07    117.75   
   218. D(B  10,B  11,B   0,B   6)    116.57 -0.002364    0.15    116.71   
   219. D(B  10,B  11,B   0,B   5)    -31.48 -0.001298    0.08    -31.40   
   220. D(B  10,B  11,B   0,B   1)     86.20 -0.002553    0.15     86.35   
   221. D(B   6,B  11,B   0,B   5)   -148.05  0.001067   -0.06   -148.11   
   222. D(B   6,B  11,B   5,B   0)     31.48  0.000521   -0.04     31.44   
   223. D(B   6,B  11,B   0,B   1)    -30.37 -0.000189    0.01    -30.36   
   224. D(B   0,B  11,B  10,B   9)    -77.14  0.005358   -0.30    -77.44   
   225. D(B   5,B  11,B  10,B   9)    -98.89 -0.002133    0.16    -98.73   
   226. D(B   6,B  11,B  10,B   4)     77.14 -0.004732    0.27     77.41   
   227. D(B   6,B  11,B  10,B   5)     98.89  0.002234   -0.16     98.72   
   228. D(B   5,B  11,B   6,B   0)    -21.74 -0.007015    0.43    -21.31   
   229. D(B   5,B  11,B   6,B   1)      0.00  0.000154   -0.01     -0.01   
   230. D(B   5,B  11,B   6,B   7)     77.14 -0.004638    0.25     77.40   
   231. D(B  10,B  11,B   6,B   0)    -98.89 -0.002040    0.15    -98.73   
   232. D(B  10,B  11,B   6,B   1)    -77.14  0.005129   -0.29    -77.43   
   233. D(B  10,B  11,B   6,B   7)      0.00  0.000337   -0.02     -0.02   
   234. D(B   6,B  11,B  10,B   9)      0.00  0.000101   -0.00     -0.00   
   235. D(B   0,B  11,B   5,B   4)   -117.68  0.001746   -0.10   -117.78   
   236. D(B  10,B  11,B   5,B   4)     30.37 -0.000079    0.01     30.38   
   237. D(B  10,B  11,B   5,B   0)    148.05 -0.001825    0.11    148.16   
   238. D(B   5,B  11,B  10,B   4)    -21.74 -0.006966    0.43    -21.32   
   239. D(B   6,B  11,B   5,B  10)   -116.57  0.002346   -0.14   -116.71   
   240. D(B   6,B  11,B   5,B   4)    -86.20  0.002267   -0.13    -86.33   
    ----------------------------------------------------------------------------

Geometry step timings:
Preparation and reading OPT file:      0.000 s ( 0.127 %)
Internal coordinates            :      0.000 s ( 0.219 %)
B/P matrices and projection     :      0.004 s (12.186 %)
Hessian update/contruction      :      0.012 s (39.314 %)
Making the step                 :      0.012 s (38.597 %)
Converting the step to Cartesian:      0.000 s ( 1.551 %)
Storing new data                :      0.000 s ( 0.314 %)
Checking convergence            :      0.000 s ( 0.352 %)
Final printing                  :      0.002 s ( 7.331 %)
Total time                      :      0.032 s

Time for energy+gradient        :      0.062 s
Time for complete geometry iter :      0.096 s

         *************************************************************
         *                GEOMETRY OPTIMIZATION CYCLE   2            *
         *************************************************************
---------------------------------
CARTESIAN COORDINATES (ANGSTROEM)
---------------------------------
  B     2.055628   -0.000090   -1.364253
  B     1.027661    1.779468   -1.364580
  B    -1.028032    1.779877   -1.364405
  B    -2.055408   -0.000000   -1.364297
  B    -1.027488   -1.779403   -1.364530
  B     1.027656   -1.779747   -1.364380
  B     1.636405    0.945168    1.364639
  B     0.000225    1.890193    1.364107
  B    -1.636321    0.944841    1.364478
  B    -1.636777   -0.945089    1.364592
  B    -0.000114   -1.890365    1.364268
  B     1.636564   -0.944855    1.364361

----------------------------
CARTESIAN COORDINATES (A.U.)
----------------------------
  NO LB    ZA    FRAG    MASS        X           Y           Z
   0 B   5.0000    0    10.810    3.884574   -0.000169   -2.578065
   1 B   5.0000    0    10.810    1.941999    3.362708   -2.578683
   2 B   5.0000    0    10.810   -1.942699    3.363481   -2.578352
   3 B   5.0000    0    10.810   -3.884159   -0.000001   -2.578148
   4 B   5.0000    0    10.810   -1.941671   -3.362584   -2.578588
   5 B   5.0000    0    10.810    1.941989   -3.363234   -2.578304
   6 B   5.0000    0    10.810    3.092357    1.786110    2.578794
   7 B   5.0000    0    10.810    0.000425    3.571947    2.577789
   8 B   5.0000    0    10.810   -3.092198    1.785490    2.578489
   9 B   5.0000    0    10.810   -3.093060   -1.785959    2.578705
  10 B   5.0000    0    10.810   -0.000216   -3.572272    2.578094
  11 B   5.0000    0    10.810    3.092658   -1.785517    2.578269

      -----------------------------------------------------------      
     |                   =====================                   |     
     |                           x T B                           |     
     |                   =====================                   |     
     |                         S. Grimme                         |     
     |          Mulliken Center for Theoretical Chemistry        |     
     |                    University of Bonn                     |     
      -----------------------------------------------------------      

   * xtb version 6.6.1 (unknown) compiled by 'builduser@buildhost' on 2023-08-07

   xtb is free software: you can redistribute it and/or modify it under
   the terms of the GNU Lesser General Public License as published by
   the Free Software Foundation, either version 3 of the License, or
   (at your option) any later version.
   
   xtb is distributed in the hope that it will be useful,
   but WITHOUT ANY WARRANTY; without even the implied warranty of
   MERCHANTABILITY or FITNESS FOR A PARTICULAR PURPOSE.  See the
   GNU Lesser General Public License for more details.
   
   Cite this work as:
   * C. Bannwarth, E. Caldeweyher, S. Ehlert, A. Hansen, P. Pracht,
     J. Seibert, S. Spicher, S. Grimme, WIREs Comput. Mol. Sci., 2020, 11,
     e01493. DOI: 10.1002/wcms.1493
   
   for GFN2-xTB:
   * C. Bannwarth, S. Ehlert and S. Grimme., J. Chem. Theory Comput., 2019,
     15, 1652-1671. DOI: 10.1021/acs.jctc.8b01176
   for GFN1-xTB:
   * S. Grimme, C. Bannwarth, P. Shushkov, J. Chem. Theory Comput., 2017,
     13, 1989-2009. DOI: 10.1021/acs.jctc.7b00118
   for GFN0-xTB:
   * P. Pracht, E. Caldeweyher, S. Ehlert, S. Grimme, ChemRxiv, 2019, preprint.
     DOI: 10.26434/chemrxiv.8326202.v1
   for GFN-FF:
   * S. Spicher and S. Grimme, Angew. Chem. Int. Ed., 2020, 59, 15665-15673.
     DOI: 10.1002/anie.202004239
   
   for ALPB and GBSA implicit solvation:
   * S. Ehlert, M. Stahn, S. Spicher, S. Grimme, J. Chem. Theory Comput.,
     2021, 17, 4250-4261. DOI: 10.1021/acs.jctc.1c00471
   
   for DFT-D4:
   * E. Caldeweyher, C. Bannwarth and S. Grimme, J. Chem. Phys., 2017,
     147, 034112. DOI: 10.1063/1.4993215
   * E. Caldeweyher, S. Ehlert, A. Hansen, H. Neugebauer, S. Spicher,
     C. Bannwarth and S. Grimme, J. Chem. Phys., 2019, 150, 154122.
     DOI: 10.1063/1.5090222
   * E. Caldeweyher, J.-M. Mewes, S. Ehlert and S. Grimme, Phys. Chem. Chem. Phys.
     2020, 22, 8499-8512. DOI: 10.1039/D0CP00502A
   
   for sTDA-xTB:
   * S. Grimme and C. Bannwarth, J. Chem. Phys., 2016, 145, 054103.
     DOI: 10.1063/1.4959605
   
   in the mass-spec context:
   * V. Asgeirsson, C. Bauer and S. Grimme, Chem. Sci., 2017, 8, 4879.
     DOI: 10.1039/c7sc00601b
   * J. Koopman and S. Grimme, ACS Omega 2019, 4, 12, 15120-15133.
     DOI: 10.1021/acsomega.9b02011
   
   for metadynamics refer to:
   * S. Grimme, J. Chem. Theory Comput., 2019, 155, 2847-2862
     DOI: 10.1021/acs.jctc.9b00143
   
   for SPH calculations refer to:
   * S. Spicher and S. Grimme, J. Chem. Theory Comput., 2021, 17, 1701-1714
     DOI: 10.1021/acs.jctc.0c01306
   
   with help from (in alphabetical order)
   P. Atkinson, C. Bannwarth, F. Bohle, G. Brandenburg, E. Caldeweyher
   M. Checinski, S. Dohm, S. Ehlert, S. Ehrlich, I. Gerasimov, C. Hölzer
   A. Katbashev, J. Koopman, C. Lavigne, S. Lehtola, F. März, M. Müller,
   F. Musil, H. Neugebauer, J. Pisarek, C. Plett, P. Pracht, F. Pultar,
   J. Seibert, P. Shushkov, S. Spicher, M. Stahn, M. Steiner, T. Strunk,
   J. Stückrath, T. Rose, and J. Unsleber
   
 * started run on 2026/04/17 at 12:14:01.208     

           -------------------------------------------------
          |                Calculation Setup                |
           -------------------------------------------------

          program call               : /usr/bin/xtb double_ring_6_6_d2.10_m1_XTB.xyz --grad -c 0 -u 0 -P 1 --namespace double_ring_6_6_d2.10_m1 --input double_ring_6_6_d2.10_m1_XTB.input.tmp --acc 0.200000
          calculation namespace      : double_ring_6_6_d2.10_m1
          coordinate file            : double_ring_6_6_d2.10_m1_XTB.xyz
          omp threads                :                     1

   ID    Z sym.   atoms
    1    5 B      1-12

molecular fragmentation (1/2 indicates fragments):
112222222222
# atoms in fragment 1/2:     2    10
 fragment masses (1/2) :       21.62      108.11
CMA distance (Bohr)    :   5.086
constraining FC (au)   :  0.0500

           -------------------------------------------------
          |                 G F N 2 - x T B                 |
           -------------------------------------------------

        Reference                      10.1021/acs.jctc.8b01176
      * Hamiltonian:
        H0-scaling (s, p, d)           1.850000    2.230000    2.230000
        zeta-weighting                 0.500000
      * Dispersion:
        s8                             2.700000
        a1                             0.520000
        a2                             5.000000
        s9                             5.000000
      * Repulsion:
        kExp                           1.500000    1.000000
        rExp                           1.000000
      * Coulomb:
        alpha                          2.000000
        third order                    shell-resolved
        anisotropic                    true
        a3                             3.000000
        a5                             4.000000
        cn-shift                       1.200000
        cn-exp                         4.000000
        max-rad                        5.000000

q/qsh data taken from xtbrestart
CAMM data taken from xtbrestart

          ...................................................
          :                      SETUP                      :
          :.................................................:
          :  # basis functions                  48          :
          :  # atomic orbitals                  48          :
          :  # shells                           24          :
          :  # electrons                        36          :
          :  max. iterations                   250          :
          :  Hamiltonian                  GFN2-xTB          :
          :  restarted?                       true          :
          :  GBSA solvation                  false          :
          :  PC potential                    false          :
          :  electronic temp.          300.0000000     K    :
          :  accuracy                    0.2000000          :
          :  -> integral cutoff          0.3198970E+02      :
          :  -> integral neglect         0.2000000E-08      :
          :  -> SCF convergence          0.2000000E-06 Eh   :
[...]
    54. A(B   5,B   4,B  10)           60.33  0.000159   -0.12     60.21   
    55. A(B  10,B   5,B  11)           68.52 -0.000053    0.48     69.00   
    56. A(B   4,B   5,B  11)          124.22 -0.000163    0.21    124.43   
    57. A(B   4,B   5,B  10)           67.39 -0.000072    0.03     67.42   
    58. A(B   0,B   5,B  10)           83.52 -0.000061    0.02     83.54   
    59. A(B   0,B   5,B  11)           57.61 -0.000151   -0.10     57.51   
    60. A(B   0,B   5,B   4)           85.00  0.000001   -0.16     84.84   
    61. A(B   1,B   6,B  11)           85.29  0.000155   -0.16     85.13   
    62. A(B   1,B   6,B   7)          108.17 -0.000019    0.13    108.30   
    63. A(B   7,B   6,B  11)          139.27  0.000021   -0.27    138.99   
    64. A(B   0,B   6,B   1)           25.33  0.000074   -0.23     25.10   
    65. A(B   0,B   6,B  11)           60.66  0.000090    0.07     60.73   
    66. A(B   0,B   6,B   7)          130.21  0.000078   -0.14    130.08   
    67. A(B   6,B   7,B   8)          131.82  0.000064   -0.02    131.80   
    68. A(B   2,B   7,B   8)           97.21 -0.000006    0.32     97.53   
    69. A(B   1,B   7,B   2)           18.18  0.000059   -0.12     18.06   
    70. A(B   1,B   7,B   8)          113.93  0.000068    0.13    114.06   
    71. A(B   1,B   7,B   6)           48.69  0.000029   -0.02     48.67   
    72. A(B   2,B   7,B   6)           64.89  0.000064   -0.10     64.79   
    73. A(B   3,B   8,B   7)           76.10 -0.000040   -0.21     75.89   
    74. A(B   2,B   8,B   9)           68.19  0.000144   -0.20     67.99   
    75. A(B   2,B   8,B   7)           65.09  0.000030   -0.29     64.79   
    76. A(B   2,B   8,B   3)           17.64 -0.000023   -0.01     17.63   
    77. A(B   3,B   8,B   9)           51.43  0.000145   -0.17     51.26   
    78. A(B   7,B   8,B   9)           96.91  0.000047    0.10     97.01   
    79. A(B   4,B   9,B  10)           29.77 -0.000081   -0.23     29.54   
    80. A(B   4,B   9,B   8)          129.02 -0.000010    0.00    129.02   
    81. A(B   3,B   9,B   4)           23.30  0.000130   -0.16     23.14   
    82. A(B   3,B   9,B  10)           50.51  0.000027   -0.33     50.18   
    83. A(B   3,B   9,B   8)          110.26 -0.000082    0.27    110.54   
    84. A(B   8,B   9,B  10)          129.87 -0.000128   -0.07    129.80   
    85. A(B   4,B  10,B   5)           52.28 -0.000088    0.09     52.37   
    86. A(B   4,B  10,B  11)           97.91 -0.000189   -0.12     97.79   
    87. A(B   4,B  10,B   9)          125.00  0.000148    0.49    125.49   
    88. A(B   5,B  10,B  11)           52.26 -0.000079   -0.14     52.12   
    89. A(B   5,B  10,B   9)          175.47  0.000116    0.54    176.01   
    90. A(B   9,B  10,B  11)          127.64  0.000090   -0.05    127.58   
    91. A(B   5,B  11,B  10)           59.22  0.000133   -0.35     58.88   
    92. A(B   5,B  11,B   6)          124.12  0.000154    0.04    124.16   
    93. A(B   0,B  11,B   5)           71.06  0.000176    0.34     71.40   
    94. A(B   0,B  11,B  10)           85.41  0.000158   -0.33     85.08   
    95. A(B   6,B  11,B  10)           82.55 -0.000062    0.07     82.61   
    96. A(B   0,B  11,B   6)           66.40  0.000060   -0.30     66.10   
    97. D(B   2,B   1,B   0,B  11)    -15.26 -0.000383    1.53    -13.74   
    98. D(B   2,B   1,B   0,B   5)     34.83  0.000021    0.04     34.87   
    99. D(B   6,B   1,B   0,B  11)     77.23 -0.000574    1.96     79.19   
   100. D(B   2,B   1,B   0,B   6)    -92.50  0.000192   -0.43    -92.93   
   101. D(B   7,B   1,B   0,B   5)    114.28 -0.000114    0.29    114.58   
   102. D(B   6,B   1,B   0,B   5)    127.33 -0.000171    0.47    127.80   
   103. D(B   8,B   2,B   1,B   7)     -7.20  0.000058   -0.18     -7.38   
   104. D(B   3,B   2,B   1,B   6)    -51.98  0.000161   -0.15    -52.13   
   105. D(B   3,B   2,B   1,B   0)    -11.99 -0.000042    0.04    -11.95   
   106. D(B   8,B   2,B   1,B   0)     47.76 -0.000108   -0.05     47.71   
   107. D(B   8,B   2,B   1,B   6)      7.77  0.000095   -0.24      7.53   
   108. D(B   3,B   2,B   1,B   7)    -66.95  0.000124   -0.09    -67.04   
   109. D(B   4,B   3,B   2,B   7)    -49.16  0.000066    0.20    -48.96   
   110. D(B   8,B   3,B   2,B   1)     62.20  0.000021   -0.41     61.78   
   111. D(B   4,B   3,B   2,B   8)    -63.90  0.000028    0.33    -63.57   
   112. D(B   4,B   3,B   2,B   1)     -1.70  0.000049   -0.08     -1.78   
   113. D(B   9,B   3,B   2,B   1)     55.40  0.000118   -0.31     55.08   
   114. D(B   8,B   3,B   2,B   7)     14.74  0.000038   -0.13     14.61   
   115. D(B   5,B   4,B   3,B   9)   -103.96  0.000006    0.05   -103.91   
   116. D(B   9,B   4,B   3,B   2)     88.77  0.000022   -0.11     88.66   
   117. D(B   5,B   4,B   3,B   2)    -15.18  0.000028   -0.06    -15.25   
   118. D(B   5,B   4,B   3,B   8)    -93.13  0.000009    0.22    -92.91   
   119. D(B   9,B   4,B   3,B   8)     10.82  0.000004    0.17     11.00   
   120. D(B  10,B   4,B   3,B   2)     71.04  0.000065    0.03     71.07   
   121. D(B   4,B   5,B   0,B  11)    136.39 -0.000113    0.59    136.98   
   122. D(B  11,B   5,B   0,B   6)    -29.04  0.000050   -0.08    -29.12   
   123. D(B  10,B   5,B   0,B   1)    -99.59  0.000085   -0.01    -99.60   
   124. D(B   4,B   5,B   0,B   6)    107.35 -0.000063    0.52    107.87   
   125. D(B   4,B   5,B   0,B   1)    -31.83  0.000015    0.06    -31.77   
   126. D(B   0,B   5,B   4,B   3)     28.45 -0.000070    0.11     28.55   
   127. D(B  11,B   5,B   0,B   1)   -168.22  0.000129   -0.53   -168.75   
   128. D(B  11,B   5,B   4,B   9)    -38.35 -0.000079   -0.78    -39.12   
   129. D(B   0,B   5,B   4,B  10)    -85.05  0.000063    0.03    -85.01   
   130. D(B  11,B   5,B   4,B   3)     73.22 -0.000157   -0.63     72.59   
   131. D(B  11,B   5,B   4,B  10)    -40.27 -0.000024   -0.70    -40.97   
   132. D(B   0,B   5,B   4,B   9)    -83.12  0.000008   -0.04    -83.16   
   133. D(B   0,B   6,B   1,B   2)    115.64  0.000009   -0.07    115.56   
   134. D(B  11,B   6,B   1,B   2)    102.80 -0.000055    0.02    102.82   
   135. D(B  11,B   6,B   1,B   0)    -12.84 -0.000064    0.09    -12.75   
   136. D(B   7,B   6,B   1,B   2)    -37.85 -0.000138    0.18    -37.67   
   137. D(B   7,B   6,B   1,B   0)   -153.48 -0.000147    0.25   -153.23   
   138. D(B   1,B   6,B   0,B   5)   -136.92  0.000065   -0.21   -137.13   
   139. D(B   7,B   6,B   0,B  11)   -131.54 -0.000085    0.34   -131.20   
   140. D(B   7,B   6,B   0,B   5)   -103.18 -0.000084    0.21   -102.96   
   141. D(B   7,B   6,B   0,B   1)     33.75 -0.000148    0.42     34.17   
   142. D(B  11,B   6,B   1,B   7)    140.64  0.000083   -0.16    140.48   
   143. D(B  11,B   6,B   0,B   1)    165.28 -0.000064    0.08    165.36   
   144. D(B  11,B   6,B   0,B   5)     28.36  0.000001   -0.13     28.23   
   145. D(B   8,B   7,B   6,B   1)     86.46  0.000079   -0.01     86.45   
   146. D(B   8,B   7,B   6,B  11)    -17.95 -0.000169   -0.01    -17.96   
   147. D(B   1,B   7,B   2,B   3)    108.64 -0.000023   -0.15    108.49   
   148. D(B   6,B   7,B   2,B   1)    -24.56 -0.000103    0.16    -24.40   
   149. D(B   6,B   7,B   2,B   3)     84.08 -0.000126    0.01     84.09   
   150. D(B   8,B   7,B   2,B   1)   -157.63 -0.000162    0.32   -157.31   
   151. D(B   2,B   7,B   1,B   0)   -133.58  0.000017   -0.16   -133.74   
   152. D(B   8,B   7,B   2,B   3)    -48.99 -0.000185    0.17    -48.82   
   153. D(B   8,B   7,B   1,B   6)   -125.53 -0.000031    0.05   -125.48   
   154. D(B   8,B   7,B   1,B   2)     24.40 -0.000164    0.33     24.73   
   155. D(B   6,B   7,B   2,B   8)    133.07  0.000059   -0.16    132.91   
   156. D(B   6,B   7,B   1,B   0)     16.36 -0.000117    0.11     16.47   
   157. D(B   6,B   7,B   1,B   2)    149.93 -0.000134    0.28    150.21   
   158. D(B   8,B   7,B   6,B   0)     71.97  0.000097   -0.13     71.84   
   159. D(B   8,B   7,B   1,B   0)   -109.17 -0.000148    0.17   -109.01   
   160. D(B   2,B   7,B   6,B   0)     -4.54  0.000085   -0.21     -4.75   
   161. D(B   2,B   7,B   6,B   1)      9.94  0.000066   -0.09      9.86   
   162. D(B   2,B   7,B   6,B  11)    -94.46 -0.000181   -0.09    -94.55   
   163. D(B   3,B   8,B   7,B   6)    -47.92 -0.000034   -0.22    -48.15   
   164. D(B   2,B   8,B   7,B   1)     -7.47  0.000024   -0.10     -7.57   
   165. D(B   2,B   8,B   7,B   6)    -62.57 -0.000062   -0.10    -62.66   
   166. D(B   9,B   8,B   7,B   1)     54.57  0.000176   -0.50     54.07   
   167. D(B   9,B   8,B   7,B   2)     62.03  0.000152   -0.40     61.63   
   168. D(B   2,B   8,B   3,B   4)    133.00  0.000142   -0.18    132.82   
   169. D(B   9,B   8,B   3,B   4)    -27.04 -0.000103   -0.46    -27.50   
   170. D(B   9,B   8,B   3,B   2)   -160.04 -0.000246   -0.28   -160.32   
   171. D(B   7,B   8,B   3,B   9)    110.85  0.000021    0.50    111.36   
   172. D(B   7,B   8,B   3,B   4)     83.81 -0.000082    0.04     83.85   
   173. D(B   7,B   8,B   3,B   2)    -49.18 -0.000225    0.22    -48.97   
   174. D(B   9,B   8,B   7,B   6)     -0.53  0.000090   -0.50     -1.03   
   175. D(B   3,B   8,B   2,B   1)   -107.27  0.000102    0.08   -107.19   
   176. D(B   9,B   8,B   2,B   1)    -90.56 -0.000084   -0.15    -90.71   
   177. D(B   7,B   8,B   2,B   3)    125.90 -0.000235    0.19    126.10   
   178. D(B   7,B   8,B   2,B   1)     18.63 -0.000134    0.28     18.91   
   179. D(B   9,B   8,B   2,B   7)   -109.19  0.000050   -0.42   -109.62   
   180. D(B   9,B   8,B   2,B   3)     16.71 -0.000186   -0.23     16.48   
   181. D(B   4,B   9,B   8,B   3)     16.07  0.000134    0.15     16.22   
   182. D(B   4,B   9,B   8,B   2)      9.67  0.000225    0.17      9.84   
   183. D(B   4,B   9,B   8,B   7)    -49.96  0.000162    0.58    -49.38   
   184. D(B  10,B   9,B   8,B   3)     54.90 -0.000009   -0.19     54.72   
   185. D(B  10,B   9,B   8,B   2)     48.51  0.000081   -0.17     48.34   
   186. D(B  10,B   9,B   8,B   7)    -11.13  0.000018    0.24    -10.88   
   187. D(B   3,B   9,B   4,B   5)    141.29 -0.000012    0.26    141.55   
   188. D(B  10,B   9,B   4,B   5)     -3.92  0.000096    0.17     -3.75   
   189. D(B  10,B   9,B   4,B   3)   -145.21  0.000108   -0.09   -145.30   
   190. D(B   8,B   9,B   4,B  10)    104.18 -0.000278   -0.49    103.69   
   191. D(B   8,B   9,B   4,B   5)    100.26 -0.000182   -0.32     99.94   
   192. D(B   8,B   9,B   4,B   3)    -41.03 -0.000170   -0.58    -41.61   
   193. D(B   4,B   9,B   3,B   2)   -125.14 -0.000147    0.15   -124.99   
   194. D(B  10,B   9,B   3,B   8)   -125.53  0.000109    0.38   -125.16   
   195. D(B  10,B   9,B   3,B   4)     21.54 -0.000004   -0.13     21.40   
   196. D(B  10,B   9,B   3,B   2)   -103.61 -0.000150    0.02   -103.59   
   197. D(B   8,B   9,B   3,B   4)    147.07 -0.000112   -0.51    146.56   
   198. D(B   8,B   9,B   3,B   2)     21.92 -0.000259   -0.36     21.57   
   199. D(B   5,B  10,B   9,B   3)     34.83 -0.000245    1.26     36.10   
   200. D(B   5,B  10,B   9,B   8)    -49.22 -0.000256    0.97    -48.26   
   201. D(B  11,B  10,B   9,B   3)    121.77 -0.000104    0.65    122.42   
   202. D(B  11,B  10,B   9,B   4)    138.77  0.000029    0.58    139.35   
   203. D(B  11,B  10,B   9,B   8)     37.71 -0.000116    0.35     38.07   
   204. D(B   4,B  10,B   5,B   0)     87.27  0.000033   -0.20     87.07   
   205. D(B  11,B  10,B   5,B   4)   -144.94  0.000112    0.26   -144.69   
   206. D(B  11,B  10,B   5,B   0)    -57.68  0.000145    0.06    -57.62   
   207. D(B   9,B  10,B   5,B  11)     90.43  0.000061   -1.30     89.13   
   208. D(B   9,B  10,B   5,B   4)    -54.51  0.000174   -1.05    -55.56   
   209. D(B   9,B  10,B   5,B   0)     32.76  0.000207   -1.25     31.51   
   210. D(B   5,B  10,B   4,B   3)   -132.46 -0.000074   -0.20   -132.66   
   211. D(B  11,B  10,B   4,B   9)   -148.20 -0.000080   -0.06   -148.27   
   212. D(B  11,B  10,B   4,B   5)     27.29  0.000037    0.13     27.42   
   213. D(B  11,B  10,B   4,B   3)   -105.16 -0.000037   -0.07   -105.24   
   214. D(B   5,B  10,B   9,B   4)     51.84 -0.000112    1.19     53.03   
   215. D(B   9,B  10,B   4,B   5)    175.50  0.000117    0.19    175.69   
   216. D(B   9,B  10,B   4,B   3)     43.04  0.000043   -0.01     43.03   
   217. D(B   5,B  11,B   0,B   1)     56.89  0.000486   -1.86     55.03   
   218. D(B  10,B  11,B   0,B   6)     83.86 -0.000137    0.15     84.01   
   219. D(B  10,B  11,B   0,B   5)    -58.99 -0.000105    0.13    -58.86   
   220. D(B  10,B  11,B   0,B   1)     -2.10  0.000380   -1.73     -3.83   
   221. D(B   6,B  11,B   0,B   5)   -142.85  0.000032   -0.02   -142.87   
   222. D(B   6,B  11,B   5,B   0)     41.95  0.000155   -0.07     41.88   
   223. D(B   6,B  11,B   0,B   1)    -85.96  0.000518   -1.88    -87.84   
   224. D(B   0,B  11,B  10,B   9)   -103.62 -0.000013   -0.39   -104.01   
   225. D(B   5,B  11,B  10,B   9)   -174.28 -0.000140   -0.77   -175.05   
   226. D(B   6,B  11,B  10,B   4)    110.11  0.000138   -0.20    109.91   
   227. D(B   6,B  11,B  10,B   5)    137.42  0.000172   -0.01    137.41   
   228. D(B   5,B  11,B   6,B   0)    -43.62 -0.000197   -0.15    -43.77   
   229. D(B   5,B  11,B   6,B   1)    -37.36 -0.000155   -0.27    -37.64   
   230. D(B   5,B  11,B   6,B   7)     75.21  0.000014   -0.16     75.05   
   231. D(B  10,B  11,B   6,B   0)    -88.23 -0.000193    0.37    -87.86   
   232. D(B  10,B  11,B   6,B   1)    -81.97 -0.000151    0.24    -81.73   
   233. D(B  10,B  11,B   6,B   7)     30.61  0.000018    0.36     30.96   
   234. D(B   6,B  11,B  10,B   9)    -36.86  0.000032   -0.79    -37.65   
   235. D(B   0,B  11,B   5,B   4)    -56.20 -0.000012    0.87    -55.33   
   236. D(B  10,B  11,B   5,B   4)     39.88  0.000016    0.64     40.52   
   237. D(B  10,B  11,B   5,B   0)     96.08  0.000029   -0.23     95.85   
   238. D(B   5,B  11,B  10,B   4)    -27.30 -0.000034   -0.19    -27.49   
   239. D(B   6,B  11,B   5,B  10)    -54.14  0.000126    0.16    -53.98   
   240. D(B   6,B  11,B   5,B   4)    -14.25  0.000143    0.80    -13.46   
    ----------------------------------------------------------------------------

Geometry step timings:
Preparation and reading OPT file:      0.000 s ( 0.323 %)
Internal coordinates            :      0.000 s ( 0.457 %)
B/P matrices and projection     :      0.004 s (27.040 %)
Hessian update/contruction      :      0.003 s (21.653 %)
Making the step                 :      0.005 s (35.096 %)
Converting the step to Cartesian:      0.000 s ( 2.332 %)
Storing new data                :      0.000 s ( 0.639 %)
Checking convergence            :      0.000 s ( 0.948 %)
Final printing                  :      0.002 s (11.504 %)
Total time                      :      0.014 s

Time for energy+gradient        :      0.049 s
Time for complete geometry iter :      0.065 s




    ----------------------------------------------------------------------------
                                  WARNING !!!
       The optimization did not converge but reached the maximum number of
       optimization cycles.
       Please check your results very carefully.
    ----------------------------------------------------------------------------



--------------------------------
SUGGESTED CITATIONS FOR THIS RUN
--------------------------------

Below you find a list of papers that are relevant to this ORCA run
We neither can nor want to force you to cite these papers, but we appreciate if you do
You receive ORCA, which is the product of decades of hard work by many enthusiastic individuals, for free
The only thing we kindly ask in return is that you cite our papers,
We deeply appreciate it, if you show your appreciation for ORCA by not just citing the generic ORCA reference.

Please note that relegating all ORCA citations to the supporting information does *not* help us.
SI sections are not indexed - citations you put there will not count into any citation statistics
But we need these citations in order to attract the funding resources that allow us to do what we are doing

Therefore, if you are a happy ORCA user, please consider citing a few of the papers listed below in the main body of your paper

In addition to the list printed below, the program has created the file double_ring_6_6_d2.10_m1.bibtex that contains the list in bibtex format
You can import this file easily into all common literature databanks and citation aid programs

It goes without saying that in many instances, there are alternative algorithms to achieve similar
results as the ones you have gotten from ORCA. It is, of course, also the case that in some instances
ORCA just re-implements algorithms worked out by others. We are fully aware of that and we are also
fully appreciative of our colleagues work. Hence this citation list should not be read as indicating
that the listed papers, which are focused on our own work, are the only ones worth citing. It simply
meant to make it easier for users to cite ORCA specific papers. It is not a substitute for doing your
own literature research and citing the relevant literature in a scientifically appropriate manner.

List of essential papers. We consider these as the minimum necessary citations

  1. Bannwarth, C.; Ehlert, S.; Grimme, S.
     GFN2-xTB—An Accurate and Broadly Parametrized Self-Consistent Tight-Binding Quantum Chemical Method with Multipole Electrostatics and Density-Dependent Dispersion Contributions
     J. Chem. Theory Comput. 2019 15(3), 1652-1671
     doi.org/10.1021/acs.jctc.8b01176
  2. Neese, F.
     Software update: the ORCA program system, version 6.0
     WIRES Comput. Molec. Sci. 2025 15(1), e70019
     doi.org/10.1002/wcms.70019

List of papers to cite with high priority. The work reported in these papers was absolutely
necessary for this run to complete.
Our perspective: the developers of density functionals and basis sets usually get cited in chemistry papers
Good! But without the algorithms to do something with them, the functionals or basis sets would not do anything.
Hence, in our opinion, the algorithm design and method developments papers are equally worthy of getting cited

  1. Bannwarth, C.; Caldeweyher, E.; Ehlert, S.; Hansen, A.; Pracht, P.; Seibert, J.; Spicher, S.; Grimme, S.
     Extended tight-binding quantum chemistry methods
     WIRES Comput. Molec. Sci. 2020 11(2), e1493
     doi.org/10.1002/wcms.1493

List of suggested additional citations. These are papers that are important in the 'surrounding' of 
of this run, or papers that preceded the highly important papers. If you like your results we are grateful for a citation.

  1. Neese, F.
     The ORCA program system
     WIRES Comput. Molec. Sci. 2012 2(1), 73-78
     doi.org/10.1002/wcms.81
  2. Neese, F.
     Software update: the ORCA program system, version 4.0
     WIRES Comput. Molec. Sci. 2018 8(1), 1-6
     doi.org/10.1002/wcms.1327
  3. Neese, F.; Wennmohs, F.; Becker, U.; Riplinger, C.
     The ORCA quantum chemistry program package
     J. Chem. Phys. 2020 152(22), 224108
     doi.org/10.1063/5.0004608
  4. Neese, F.
     Software update: The ORCA program system—Version 5.0
     WIRES Comput. Molec. Sci. 2022 12(1), e1606
     doi.org/10.1002/wcms.1606

List of optional additional citations

  1. Neese, F.
     Approximate second-order SCF convergence for spin unrestricted wavefunctions
     Chem. Phys. Lett. 2000 325(1-3), 93-98
     doi.org/10.1016/s0009-2614(00)00662-x

Timings for individual modules:

Sum of individual times          ...        3.452 sec (=   0.058 min)
Geometry relaxation              ...        1.101 sec (=   0.018 min)  31.9 %
XTB module                       ...        2.350 sec (=   0.039 min)  68.1 %
                             ****ORCA TERMINATED NORMALLY****
TOTAL RUN TIME: 0 days 0 hours 0 minutes 4 seconds 572 msec
