
                                 *****************
                                 * O   R   C   A *
                                 *****************

                                            #,                                       
                                            ###                                      
                                            ####                                     
                                            #####                                    
                                            ######                                   
                                           ########,                                 
                                     ,,################,,,,,                         
                               ,,#################################,,                 
                          ,,##########################################,,             
                       ,#########################################, ''#####,          
                    ,#############################################,,   '####,        
                  ,##################################################,,,,####,       
                ,###########''''           ''''###############################       
              ,#####''   ,,,,##########,,,,          '''####'''          '####       
            ,##' ,,,,###########################,,,                        '##       
           ' ,,###''''                  '''############,,,                           
         ,,##''                                '''############,,,,        ,,,,,,###''
      ,#''                                            '''#######################'''  
     '                                                          ''''####''''         
             ,#######,   #######,   ,#######,      ##                                
            ,#'     '#,  ##    ##  ,#'     '#,    #''#        ,####,    ,#,          
            ##       ##  ##   ,#'  ##            #'  '#       #'       ,# #          
            ##       ##  #######   ##           ,######,      #####,      #          
            '#,     ,#'  ##    ##  '#,     ,#' ,#      #,     #,   #      #          
             '#######'   ##     ##  '#######'  #'      '#     '####' #    #          



                #########################################################
                #                        -***-                          #
                #          Department of theory and spectroscopy        #
                #                                                       #
                #                      Frank Neese                      #
                #                                                       #
                #     Directorship, Architecture, Infrastructure        #
                #                    SHARK, DRIVERS                     #
                #        Core code/Algorithms in most modules           #
                #                                                       #
                #        Max Planck Institute fuer Kohlenforschung      #
                #                Kaiser Wilhelm Platz 1                 #
                #                 D-45470 Muelheim/Ruhr                 #
                #                      Germany                          #
                #                                                       #
                #                  All rights reserved                  #
                #                        -***-                          #
                #########################################################


                         Program Version 6.1.1  -  RELEASE   -
                                (GIT: $487d211c$)
                          ($2025-11-21 10:33:24 +0100$)
                                                                         
                                  - NO-DMRG VERSION -                    
                                                                         


 With contributions from (in alphabetic order):
[Max-Planck-Institut fuer Kohlenforschung]                               
  Daniel Aravena         : Magnetic Suceptibility                        
  Michael Atanasov       : Ab Initio Ligand Field Theory (pilot matlab implementation)
  Alexander A. Auer      : GIAO ZORA, VPT2 properties, NMR spectrum      
  Ute Becker             : All parallelization in ORCA, NUMFREQ, NUMCALC 
  Giovanni Bistoni       : ED, misc. LED, open-shell LED, HFLD           
  Dmytro Bykov           : pre 5.0 version of the SCF Hessian            
  Marcos Casanova-Páez   : Triplet and SCS-CIS(D). UHF-(DLPNO)-IP/EA/STEOM-CCSD. UHF-CVS-IP/STEOM-CCSD   
  Vijay G. Chilkuri      : MRCI spin determinant printing, contributions to CSF-ICE 
  Pauline Colinet        : FMM embedding                                 
  Dipayan Datta          : RHF DLPNO-CCSD density                        
  Achintya Kumar Dutta   : EOM-CC, STEOM-CC                              
  Nicolas Foglia         : Exact transition moments, OPA infrastructure, MCD improvements    
  Dmitry Ganyushin       : Spin-Orbit,Spin-Spin,Magnetic field MRCI      
  Miquel Garcia-Rates    : C-PCM and meta-GGA Hessian, CCSD/C-PCM, Gaussian charge scheme 
  Tiago L. C. Gouveia    : GS-ROHF, GS-ROCIS                             
  Yang Guo               : DLPNO-NEVPT2, F12-NEVPT2, CIM, IAO-localization        
  Andreas Hansen         : Spin unrestricted coupled pair/coupled cluster methods 
  Ingolf Harden          : AUTO-CI MPn and infrastructure                
  Benjamin Helmich-Paris : MC-RPA, TRAH-(SCF,CASSCF), AVAS, COSX integrals, SCF dyn. polar., MC-PDFT, srDFT 
  Lee Huntington         : MR-EOM, pCC                                   
  Robert Izsak           : Overlap fitted RIJCOSX, COSX-SCS-MP3, EOM     
  Riya Kayal             : Wick's Theorem for AUTO-CI, AUTO-CI UHF-CCSDT 
  Emily Kempfer          : AUTO-CI RHF CISDT and CCSDT, approximate NEVPT4
  Christian Kollmar      : KDIIS, OOCD, Brueckner-CCSD(T), CCSD density, CASPT2, CASPT2-K, improved NEVPT2 
  Axel Koslowski         : Symmetry handling                             
  Simone Kossmann        : meta-GGA functionals, TD-DFT gradient, OOMP2, (MP2 Hessian; deprecated post 5.0) 
  Lucas Lang             : DCDCAS, Hyperfine gauge corrections, ICE-SOC+SSC
  Marvin Lechner         : AUTO-CI (C++ implementation), FIC-MRCC        
  Spencer Leger          : CASSCF response                               
  Dagmar Lenk            : GEPOL surface, SMD, ORCA-2-JSON               
  Dimitrios Liakos       : Extrapolation schemes; Compound Job, Property file
  Dimitrios Manganas     : Further ROCIS development; embedding schemes. LFT, Crystal Embedding 
  Dimitrios Pantazis     : SARC Basis sets                               
  Anastasios Papadopoulos: AUTO-CI, single reference methods and gradients 
  Taras Petrenko         : pre 6.0 DFT Hessian and TD-DFT gradient,  ECA, NRVS 
  Petra Pikulova         : Analytic Raman intensities                    
  Peter Pinski           : DLPNO-MP2, DLPNO-MP2 Gradient                 
  Shashank Vittal Rao    : ES-AILFT, MagRelax                            
  Christoph Reimann      : Effective Core Potentials                     
  Marius Retegan         : Local ZFS, SOC                                
  Christoph Riplinger    : Optimizer, TS searches, QM/MM, DLPNO-CCSD(T), (RO)-DLPNO pert. Triples 
  Michael Roemelt        : Original ROCIS implementation, recursive CI coupling coefficients
  Masaaki Saitow         : Open-shell DLPNO-CCSD energy and density      
  Barbara Sandhoefer     : DKH picture change effects                    
  Yorick L. A. Schmerwitz: GMF and freeze-and-release deltaSCF, NEB S-IDPP initial path                    
  Kantharuban Sivalingam : CASSCF convergence/infrastructure, NEVPT2, NEVPT3, NEVPT4(SD), FIC-MRCI and CEPA variants
  Bernardo de Souza      : ESD, SOC TD-DFT                               
  Georgi L. Stoychev     : AutoAux, RI-MP2 NMR, DLPNO-MP2 response, X2C  
  Van Anh Tran           : RI-MP2 g-tensors                              
  Willem Van den Heuvel  : Paramagnetic NMR                              
  Zikuan Wang            : NOTCH, Electric field optimization            
  Frank Wennmohs         : Technical directorship and infrastructure     
  Hang Xu                : AUTO-CI-Response properties                   
                                                                         
[FACCTs GmbH]                                                            
  Markus Bursch, Nicolas Foglia, Miquel Garcia-Rates, Ingolf Harden, Hagen Neugebauer, Anastasios Papadopoulos, 
  Christoph Riplinger, Bernardo de Souza, Georgi L. Stoychev                                                    
                                                                 
  APM, various basis sets, CI-OPT, improved COSX, DLPNO-Multilevel,           
  DOCKER, DRACO, updates on ESD, Fragmentator, GOAT, IRC, LR-CPCM, L-BFGS, MBIS, meta-GGA TD-DFT gradient, ML-optimized integration grids, 
  MM, NACMEs, nearIR, NEB, NEB-TS, NL-DFT gradient (VV10), 2- and 3-layer-ONIOM, interface openCOSMO-RS, QMMM,   
  Crystal-QMMM, RESP, rigid body optimization, SF, symmetry and pop. for TD-DFT, various functionals, SOLVATOR                                   
                                                                         
[Other institutions]                                                     
  V. Asgeirsson          : NEB                                           
  Christoph Bannwarth    : sTDA-DFT, sTD-DFT, PBEh-3c, B97-3c, D3        
  Giovanni Bistoni       : ETS/NOCV, ADLD/ADEX, COVALED                  
  Martin Brehm           : Molecular dynamics                            
  Ronald Cardenas        : ETS/NOCV                                      
  Martina Colucci        : COVALED                                       
  Sebastian Ehlert       : rSCAN, r2SCAN, r2SCAN-3c, D4, dhf basis sets  
  Marvin Friede          : D4 for Fr, Ra, Ac-Lr                          
  Lars Goerigk           : TD-DFT with DH, B97 family of functionals     
  Stefan Grimme          : VdW corrections, initial TS optimization, DFT functionals, gCP, sTDA/sTD-DF 
  Waldemar Hujo          : DFT-NL                                        
  H. Jonsson             : NEB                                           
  Holger Kruse           : gCP                                           
  Marcel Mueller         : wB97X-3c, vDZP basis set                      
  Hagen Neugebauer       : wr2SCAN, Native XTB                           
  Gianluca Regni         : ADLD/ADEX                                     
  Tobias Risthaus        : pre 6.0 range-separated hybrid DFT and stability analysis
  Lukas Wittmann         : regularized MP2, r2SCAN double-hybrids, wr2SCAN        
                                                                         
We gratefully acknowledge several colleagues who have allowed us to      
interface, adapt or use parts of their codes:                            
  Ed Valeev, F. Pavosevic, A. Kumar             : LibInt (2-el integral package), F12 methods 
  Garnet Chan, S. Sharma, J. Yang, R. Olivares  : DMRG                   
  Ulf Ekstrom                                   : XCFun DFT Library      
  Mihaly Kallay                                 : mrcc  (arbitrary order and MRCC methods)
  Frank Weinhold                                : gennbo (NPA and NBO analysis)           
  Simon Mueller                                 : openCOSMO-RS                            
  Christopher J. Cramer and Donald G. Truhlar   : smd solvation model                     
  S Lehtola, MJT Oliveira, MAL Marques          : LibXC Library                           
  Liviu Ungur et al                             : ANISO software                          


 Your calculation uses the libint2 library for the computation of 2-el integrals
 For citations please refer to: http://libint.valeyev.net

 Your ORCA version has been built with support for libXC version: 7.0.0
 For citations please refer to: https://libxc.gitlab.io

 This ORCA versions uses:
   CBLAS   interface :  Fast vector & matrix operations
   LAPACKE interface :  Fast linear algebra routines
   SCALAPACK package :  Parallel linear algebra routines
   Shared memory     :  Shared parallel matrices
   BLAS/LAPACK       :  OpenBLAS 0.3.29  USE64BITINT DYNAMIC_ARCH NO_AFFINITY Zen SINGLE_THREADED
        Core in use  :  Zen
   Copyright (c) 2011-2014, The OpenBLAS Project


  ***********************************
  * Starting time: Fri Apr 17 12:14:20 2026
  * Host name:     vmi3233575
  * Process ID:    334386
  * Working dir.:  /root/orca_b12_vps_pack/jobs/01_xtb/mult_1
  ***********************************

NOTE: MaxCore=500 MB was set to SCF,MP2,MDCI,CIPSI,MRCI,RASCI and CIS
      => If you want to overwrite this, your respective input block should be placed after the MaxCore statement


***************************************
The coordinates will be read from file: ../../../starts/random_d2.10_004.xyz
***************************************


Your calculation utilizes the semiempirical GFN2-xTB method
Please cite in your paper:
Bannwarth, C.; Ehlert S.; Grimme, S. J. Chem. Theory Comput. 2019, 15, 1652.
   

================================================================================

================================================================================
                                        WARNINGS
                       Please study these warnings very carefully!
================================================================================


WARNING: Geometry Optimization
  ===> : Switching off AutoStart
         For restart on a previous wavefunction, please use MOREAD

WARNING: Found dipole moment calculation with XTB calculation
  ===> : Switching off dipole moment calculation

Environment variable XTBEXE for xtb has been set!

================================================================================
                                       INPUT FILE
================================================================================
NAME = random_d2.10_004_m1.inp
|  1> ! GFN2-xTB TightSCF TightOpt
|  2> 
|  3> %pal
|  4>   nprocs 1
|  5> end
|  6> 
|  7> %maxcore 500
|  8> 
|  9> * xyzfile 0 1 ../../../starts/random_d2.10_004.xyz
| 10> 
| 11>                          ****END OF INPUT****
================================================================================

                       *****************************
                       * Geometry Optimization Run *
                       *****************************

Geometry optimization settings:
Update method            Update   .... BFGS
Choice of coordinates    CoordSys .... (2022) Redundant Internals
Initial Hessian          InHess   .... Almloef's Model
Max. no of cycles        MaxIter  .... 50

Convergence Tolerances:
Energy Change            TolE     ....  1.0000e-06 Eh
Max. Gradient            TolMAXG  ....  1.0000e-04 Eh/bohr
RMS Gradient             TolRMSG  ....  3.0000e-05 Eh/bohr
Max. Displacement        TolMAXD  ....  1.0000e-03 bohr
RMS Displacement         TolRMSD  ....  6.0000e-04 bohr
Strict Convergence                .... False

------------------------------------------------------------------------------
                        ORCA OPTIMIZATION COORDINATE SETUP
------------------------------------------------------------------------------

The optimization will be done in redundant internal coordinates (2022)
Making redundant internal coordinates   ...  (2022 redundants) done
Evaluating the initial hessian          ...  (Almloef) done
Evaluating the coordinates              ...  done
Calculating the B-matrix                .... done
Calculating the G-matrix                .... done
The number of degrees of freedom        ....  154

    -----------------------------------------------------------------
                    Redundant Internal Coordinates


    -----------------------------------------------------------------
         Definition                    Initial Value    Approx d2E/dq
    -----------------------------------------------------------------
      1. B(B   1,B   0)                  1.7665         0.210231   
      2. B(B   3,B   2)                  2.2691         0.033181   
      3. B(B   5,B   4)                  1.3840         0.856896   
      4. B(B   6,B   0)                  2.6208         0.010000   
      5. B(B   6,B   5)                  3.2441         0.010000   
      6. B(B   6,B   4)                  2.8639         0.010000   
      7. B(B   7,B   3)                  3.6092         0.010000   
      8. B(B   7,B   1)                  3.4332         0.010000   
      9. B(B   8,B   3)                  2.8882         0.010000   
     10. B(B   8,B   5)                  2.2618         0.034080   
     11. B(B   8,B   7)                  2.9432         0.010000   
     12. B(B   8,B   2)                  2.9211         0.010000   
     13. B(B   9,B   0)                  2.4763         0.015496   
     14. B(B   9,B   1)                  2.3043         0.029147   
     15. B(B   9,B   2)                  2.4595         0.016482   
     16. B(B  10,B   6)                  3.6372         0.010000   
     17. B(B  10,B   4)                  1.1909         1.742001   
     18. B(B  10,B   5)                  1.6384         0.336523   
     19. B(B  11,B   1)                  2.1648         0.048667   
     20. B(B  11,B   7)                  3.0910         0.010000   
     21. A(B   1,B   0,B   6)          160.9163         0.197462   
     22. A(B   6,B   0,B   9)          130.9266         0.149111   
     23. A(B   1,B   0,B   9)           63.2146         0.211303   
     24. A(B   0,B   1,B   7)          113.5426         0.144197   
     25. A(B   0,B   1,B  11)           95.4901         0.247463   
     26. A(B   0,B   1,B   9)           73.6018         0.230104   
     27. A(B   7,B   1,B  11)           62.2602         0.128636   
     28. A(B   7,B   1,B   9)          106.0956         0.124294   
     29. A(B   9,B   1,B  11)          159.9735         0.190323   
     30. A(B   3,B   2,B   9)          103.5029         0.170662   
     31. A(B   8,B   2,B   9)          113.0906         0.136486   
     32. A(B   3,B   2,B   8)           66.2458         0.144635   
     33. A(B   2,B   3,B   7)           95.8687         0.120397   
     34. A(B   7,B   3,B   8)           52.4511         0.107764   
     35. A(B   2,B   3,B   8)           67.7757         0.146178   
     36. A(B   6,B   4,B  10)          121.9493         0.232002   
     37. A(B   5,B   4,B   6)           92.9405         0.210787   
     38. A(B   5,B   4,B  10)           78.6412         0.578479   
     39. A(B   6,B   5,B   8)          106.8768         0.131790   
     40. A(B   8,B   5,B  10)          105.5225         0.251612   
     41. A(B   4,B   5,B   8)          144.5630         0.289921   
     42. A(B   6,B   5,B  10)           90.1139         0.160852   
     43. A(B   4,B   5,B   6)           61.8414         0.177780   
     44. A(B   4,B   5,B  10)           45.4475         0.426382   
     45. A(B   0,B   6,B  10)          103.7463         0.111895   
     46. A(B   5,B   6,B  10)           26.7731         0.102635   
     47. A(B   4,B   6,B  10)           16.1299         0.107704   
     48. A(B   4,B   6,B   5)           25.2182         0.114937   
     49. A(B   0,B   6,B   5)           86.5071         0.120748   
     50. A(B   0,B   6,B   4)          111.1221         0.132551   
     51. A(B   1,B   7,B   3)           79.6554         0.100927   
     52. A(B   3,B   7,B  11)          113.1921         0.104852   
     53. A(B   3,B   7,B   8)           51.0802         0.106925   
     54. A(B   1,B   7,B  11)           38.3062         0.107350   
     55. A(B   1,B   7,B   8)           80.1270         0.109750   
     56. A(B   8,B   7,B  11)           87.9616         0.116579   
     57. A(B   3,B   8,B   5)          147.9536         0.146525   
     58. A(B   2,B   8,B   7)           98.8807         0.120764   
     59. A(B   3,B   8,B   7)           76.4687         0.121645   
     60. A(B   5,B   8,B   7)          127.3906         0.143955   
     61. A(B   2,B   8,B   3)           45.9785         0.122249   
     62. A(B   2,B   8,B   5)          104.1571         0.144973   
     63. A(B   0,B   9,B   2)           81.3517         0.157735   
     64. A(B   1,B   9,B   2)          101.5985         0.168301   
     65. A(B   0,B   9,B   1)           43.1837         0.167202   
     66. A(B   4,B  10,B   5)           55.9113         0.485151   
     67. A(B   5,B  10,B   6)           63.1130         0.140816   
     68. A(B   4,B  10,B   6)           41.9208         0.164175   
     69. A(B   1,B  11,B   7)           79.4336         0.141679   
     70. D(B  11,B   1,B   0,B   6)     21.1126         0.010000   
     71. D(B   9,B   1,B   0,B   6)   -141.7499         0.010000   
     72. D(B  11,B   1,B   0,B   9)    162.8626         0.010000   
     73. D(B   7,B   1,B   0,B   6)    -40.9712         0.010000   
     74. D(B   7,B   1,B   0,B   9)    100.7788         0.010000   
     75. D(B   7,B   3,B   2,B   9)    -64.3054         0.010000   
     76. D(B   8,B   3,B   2,B   9)   -109.5717         0.010000   
     77. D(B   7,B   3,B   2,B   8)     45.2663         0.010000   
     78. D(B   8,B   5,B   4,B   6)     79.3832         0.038313   
     79. D(B   6,B   5,B   4,B  10)   -122.0145         0.038313   
     80. D(B   8,B   5,B   4,B  10)    -42.6313         0.038313   
     81. D(B  10,B   5,B   4,B   6)    122.0145         0.038313   
     82. D(B   5,B   6,B   0,B   1)     39.4736         0.010000   
     83. D(B  10,B   6,B   4,B   5)    -78.4405         0.010000   
     84. D(B   0,B   6,B   5,B  10)    130.5019         0.010000   
     85. D(B  10,B   6,B   5,B   4)     37.1735         0.010000   
     86. D(B   0,B   6,B   5,B   8)     24.2258         0.010000   
     87. D(B   4,B   6,B   5,B   8)   -143.4496         0.010000   
     88. D(B   4,B   6,B   0,B   9)    -87.9212         0.010000   
     89. D(B   5,B   6,B   4,B  10)     78.4405         0.010000   
     90. D(B   0,B   6,B   5,B   4)    167.6754         0.010000   
     91. D(B   4,B   6,B   0,B   1)     45.0685         0.010000   
     92. D(B   0,B   6,B   4,B   5)    -13.2028         0.010000   
     93. D(B  10,B   6,B   0,B   1)     60.1214         0.010000   
     94. D(B   4,B   6,B   5,B  10)    -37.1735         0.010000   
     95. D(B   5,B   6,B   0,B   9)    -93.5161         0.010000   
     96. D(B   0,B   6,B   4,B  10)     65.2377         0.010000   
     97. D(B  11,B   7,B   1,B   0)     83.6144         0.010000   
     98. D(B   8,B   7,B   1,B   9)     63.0544         0.010000   
     99. D(B   8,B   7,B   1,B   0)    -15.7133         0.010000   
    100. D(B   8,B   7,B   1,B  11)    -99.3277         0.010000   
    101. D(B   1,B   7,B   3,B   8)     85.6049         0.010000   
    102. D(B   1,B   7,B   3,B   2)     29.5633         0.010000   
    103. D(B  11,B   7,B   3,B   8)     66.6912         0.010000   
    104. D(B  11,B   7,B   3,B   2)     10.6496         0.010000   
    105. D(B   8,B   7,B   3,B   2)    -56.0416         0.010000   
    106. D(B   3,B   7,B   1,B   0)    -67.6564         0.010000   
    107. D(B  11,B   7,B   1,B   9)    162.3821         0.010000   
    108. D(B   3,B   8,B   7,B   1)    -84.6214         0.010000   
    109. D(B   3,B   8,B   7,B  11)   -122.3596         0.010000   
    110. D(B   5,B   8,B   7,B   3)    155.9744         0.010000   
    111. D(B   5,B   8,B   7,B  11)     33.6148         0.010000   
    112. D(B   2,B   8,B   5,B   6)     30.7607         0.010000   
    113. D(B   2,B   8,B   5,B  10)    -64.1969         0.010000   
    114. D(B   2,B   8,B   5,B   4)    -34.1371         0.010000   
    115. D(B   3,B   8,B   5,B   6)     49.3614         0.010000   
    116. D(B   3,B   8,B   5,B  10)    -45.5962         0.010000   
    117. D(B   3,B   8,B   5,B   4)    -15.5364         0.010000   
    118. D(B   7,B   8,B   3,B   2)    116.9615         0.010000   
    119. D(B   2,B   8,B   3,B   7)   -116.9615         0.010000   
    120. D(B   5,B   8,B   3,B   7)   -142.4361         0.010000   
    121. D(B   5,B   8,B   3,B   2)    -25.4746         0.010000   
    122. D(B   7,B   8,B   2,B   3)    -61.2928         0.010000   
    123. D(B   5,B   8,B   7,B   1)     71.3530         0.010000   
    124. D(B   7,B   8,B   2,B   9)     33.8532         0.010000   
    125. D(B   3,B   8,B   2,B   9)     95.1459         0.010000   
    126. D(B   5,B   8,B   2,B   3)    166.3867         0.010000   
    127. D(B   2,B   8,B   7,B  11)    -81.9160         0.010000   
    128. D(B   5,B   8,B   2,B   9)    -98.4674         0.010000   
    129. D(B   0,B   9,B   1,B  11)    -58.9259         0.010000   
    130. D(B   2,B   9,B   0,B   6)     47.1232         0.010000   
    131. D(B   2,B   9,B   0,B   1)   -117.3374         0.010000   
    132. D(B   1,B   9,B   0,B   6)    164.4606         0.010000   
    133. D(B   0,B   9,B   2,B   3)    119.5726         0.010000   
    134. D(B   1,B   9,B   2,B   8)     11.5768         0.010000   
    135. D(B   1,B   9,B   2,B   3)     81.2139         0.010000   
    136. D(B   2,B   9,B   1,B   7)    -46.6870         0.010000   
    137. D(B   2,B   9,B   1,B  11)      4.7790         0.010000   
    138. D(B   2,B   9,B   1,B   0)     63.7048         0.010000   
    139. D(B   0,B   9,B   2,B   8)     49.9355         0.010000   
    140. D(B   0,B   9,B   1,B   7)   -110.3919         0.010000   
    141. D(B   5,B  10,B   6,B   4)     67.9209         0.010000   
    142. D(B   5,B  10,B   6,B   0)    -51.3846         0.010000   
    143. D(B   4,B  10,B   6,B   5)    -67.9209         0.010000   
    144. D(B   4,B  10,B   6,B   0)   -119.3055         0.010000   
    145. D(B   6,B  10,B   5,B   8)    107.5691         0.010000   
    146. D(B   6,B  10,B   5,B   4)    -48.3795         0.010000   
    147. D(B   4,B  10,B   5,B   8)    155.9486         0.010000   
    148. D(B   4,B  10,B   5,B   6)     48.3795         0.010000   
    149. D(B   6,B  10,B   4,B   5)     86.3525         0.175536   
    150. D(B   5,B  10,B   4,B   6)    -86.3525         0.175536   
    151. D(B   1,B  11,B   7,B   3)     30.9592         0.010000   
    152. D(B   1,B  11,B   7,B   8)     76.6008         0.010000   
    153. D(B   7,B  11,B   1,B   9)    -58.1215         0.010000   
    154. D(B   7,B  11,B   1,B   0)   -113.7553         0.010000   
    -----------------------------------------------------------------

Number of atoms                         .... 12
Number of degrees of freedom            .... 154


         *************************************************************
         *                GEOMETRY OPTIMIZATION CYCLE   1            *
         *************************************************************
---------------------------------
CARTESIAN COORDINATES (ANGSTROEM)
---------------------------------
  B     1.689863   -1.219727    0.077274
  B     2.293111   -0.243077    1.419944
  B     0.864783    1.433393   -1.544442
  B     0.299793    3.343499   -0.457741
  B    -2.566369   -1.720085   -1.376592
  B    -2.318441   -0.858611   -0.322133
  B     0.114692   -2.726938   -1.377218
  B    -0.083807    1.819869    2.791470
  B    -1.414088    1.131701    0.257911
  B     3.003360    0.795548   -0.510548
  B    -2.844872   -0.668908   -1.862050
  B     0.961975   -1.086665    2.904125

----------------------------
CARTESIAN COORDINATES (A.U.)
----------------------------
  NO LB    ZA    FRAG    MASS        X           Y           Z
   0 B   5.0000    0    10.810    3.193378   -2.304949    0.146027
   1 B   5.0000    0    10.810    4.333351   -0.459350    2.683304
   2 B   5.0000    0    10.810    1.634204    2.708721   -2.918573
   3 B   5.0000    0    10.810    0.566526    6.318297   -0.865006
   4 B   5.0000    0    10.810   -4.849734   -3.250489   -2.601381
   5 B   5.0000    0    10.810   -4.381218   -1.622540   -0.608743
   6 B   5.0000    0    10.810    0.216737   -5.153165   -2.602566
   7 B   5.0000    0    10.810   -0.158372    3.439055    5.275115
   8 B   5.0000    0    10.810   -2.672240    2.138606    0.487382
   9 B   5.0000    0    10.810    5.675527    1.503367   -0.964796
  10 B   5.0000    0    10.810   -5.376030   -1.264052   -3.518764
  11 B   5.0000    0    10.810    1.817869   -2.053500    5.488000

      -----------------------------------------------------------      
     |                   =====================                   |     
     |                           x T B                           |     
     |                   =====================                   |     
     |                         S. Grimme                         |     
     |          Mulliken Center for Theoretical Chemistry        |     
     |                    University of Bonn                     |     
      -----------------------------------------------------------      

   * xtb version 6.6.1 (unknown) compiled by 'builduser@buildhost' on 2023-08-07

   xtb is free software: you can redistribute it and/or modify it under
   the terms of the GNU Lesser General Public License as published by
   the Free Software Foundation, either version 3 of the License, or
   (at your option) any later version.
   
   xtb is distributed in the hope that it will be useful,
   but WITHOUT ANY WARRANTY; without even the implied warranty of
   MERCHANTABILITY or FITNESS FOR A PARTICULAR PURPOSE.  See the
   GNU Lesser General Public License for more details.
   
   Cite this work as:
   * C. Bannwarth, E. Caldeweyher, S. Ehlert, A. Hansen, P. Pracht,
     J. Seibert, S. Spicher, S. Grimme, WIREs Comput. Mol. Sci., 2020, 11,
     e01493. DOI: 10.1002/wcms.1493
   
   for GFN2-xTB:
   * C. Bannwarth, S. Ehlert and S. Grimme., J. Chem. Theory Comput., 2019,
     15, 1652-1671. DOI: 10.1021/acs.jctc.8b01176
   for GFN1-xTB:
   * S. Grimme, C. Bannwarth, P. Shushkov, J. Chem. Theory Comput., 2017,
     13, 1989-2009. DOI: 10.1021/acs.jctc.7b00118
   for GFN0-xTB:
   * P. Pracht, E. Caldeweyher, S. Ehlert, S. Grimme, ChemRxiv, 2019, preprint.
     DOI: 10.26434/chemrxiv.8326202.v1
   for GFN-FF:
   * S. Spicher and S. Grimme, Angew. Chem. Int. Ed., 2020, 59, 15665-15673.
     DOI: 10.1002/anie.202004239
   
   for ALPB and GBSA implicit solvation:
   * S. Ehlert, M. Stahn, S. Spicher, S. Grimme, J. Chem. Theory Comput.,
     2021, 17, 4250-4261. DOI: 10.1021/acs.jctc.1c00471
   
   for DFT-D4:
   * E. Caldeweyher, C. Bannwarth and S. Grimme, J. Chem. Phys., 2017,
     147, 034112. DOI: 10.1063/1.4993215
   * E. Caldeweyher, S. Ehlert, A. Hansen, H. Neugebauer, S. Spicher,
     C. Bannwarth and S. Grimme, J. Chem. Phys., 2019, 150, 154122.
     DOI: 10.1063/1.5090222
   * E. Caldeweyher, J.-M. Mewes, S. Ehlert and S. Grimme, Phys. Chem. Chem. Phys.
     2020, 22, 8499-8512. DOI: 10.1039/D0CP00502A
   
   for sTDA-xTB:
   * S. Grimme and C. Bannwarth, J. Chem. Phys., 2016, 145, 054103.
     DOI: 10.1063/1.4959605
   
   in the mass-spec context:
   * V. Asgeirsson, C. Bauer and S. Grimme, Chem. Sci., 2017, 8, 4879.
     DOI: 10.1039/c7sc00601b
   * J. Koopman and S. Grimme, ACS Omega 2019, 4, 12, 15120-15133.
     DOI: 10.1021/acsomega.9b02011
   
   for metadynamics refer to:
   * S. Grimme, J. Chem. Theory Comput., 2019, 155, 2847-2862
     DOI: 10.1021/acs.jctc.9b00143
   
   for SPH calculations refer to:
   * S. Spicher and S. Grimme, J. Chem. Theory Comput., 2021, 17, 1701-1714
     DOI: 10.1021/acs.jctc.0c01306
   
   with help from (in alphabetical order)
   P. Atkinson, C. Bannwarth, F. Bohle, G. Brandenburg, E. Caldeweyher
   M. Checinski, S. Dohm, S. Ehlert, S. Ehrlich, I. Gerasimov, C. Hölzer
   A. Katbashev, J. Koopman, C. Lavigne, S. Lehtola, F. März, M. Müller,
   F. Musil, H. Neugebauer, J. Pisarek, C. Plett, P. Pracht, F. Pultar,
   J. Seibert, P. Shushkov, S. Spicher, M. Stahn, M. Steiner, T. Strunk,
   J. Stückrath, T. Rose, and J. Unsleber
   
 * started run on 2026/04/17 at 12:14:21.010     

           -------------------------------------------------
          |                Calculation Setup                |
           -------------------------------------------------

          program call               : /usr/bin/xtb random_d2.10_004_m1_XTB.xyz --grad -c 0 -u 0 -P 1 --namespace random_d2.10_004_m1 --input random_d2.10_004_m1_XTB.input.tmp --acc 0.200000
          calculation namespace      : random_d2.10_004_m1
          coordinate file            : random_d2.10_004_m1_XTB.xyz
          omp threads                :                     1

   ID    Z sym.   atoms
    1    5 B      1-12

molecular fragmentation (1/2 indicates fragments):
112222222222
# atoms in fragment 1/2:     2    10
 fragment masses (1/2) :       21.62      108.11
CMA distance (Bohr)    :   5.102
constraining FC (au)   :  0.0500

           -------------------------------------------------
          |                 G F N 2 - x T B                 |
           -------------------------------------------------

        Reference                      10.1021/acs.jctc.8b01176
      * Hamiltonian:
        H0-scaling (s, p, d)           1.850000    2.230000    2.230000
        zeta-weighting                 0.500000
      * Dispersion:
        s8                             2.700000
        a1                             0.520000
        a2                             5.000000
        s9                             5.000000
      * Repulsion:
        kExp                           1.500000    1.000000
        rExp                           1.000000
      * Coulomb:
        alpha                          2.000000
        third order                    shell-resolved
        anisotropic                    true
        a3                             3.000000
        a5                             4.000000
        cn-shift                       1.200000
        cn-exp                         4.000000
        max-rad                        5.000000


          ...................................................
          :                      SETUP                      :
          :.................................................:
          :  # basis functions                  48          :
          :  # atomic orbitals                  48          :
          :  # shells                           24          :
          :  # electrons                        36          :
          :  max. iterations                   250          :
          :  Hamiltonian                  GFN2-xTB          :
          :  restarted?                      false          :
          :  GBSA solvation                  false          :
          :  PC potential                    false          :
          :  electronic temp.          300.0000000     K    :
          :  accuracy                    0.2000000          :
          :  -> integral cutoff          0.3198970E+02      :
          :  -> integral neglect         0.2000000E-08      :
          :  -> SCF convergence          0.2000000E-06 Eh   :
          :  -> wf. convergence          0.2000000E-04 e    :
          :  Broyden damping             0.4000000          :
          ...................................................

 iter      E             dE          RMSdq      gap      omega  full diag
   1    -12.8468909 -0.128469E+02  0.191E+01    0.12       0.0  T
   2     -5.3304812  0.751641E+01  0.181E+01    0.04       1.0  T
   3     27.7594393  0.330899E+02  0.341E+01    1.15       1.0  T
   4     -0.9019091 -0.286613E+02  0.225E+01    0.22       1.0  T
   5     -6.6889070 -0.578700E+01  0.160E+01    0.42       1.0  T
   6     -0.1094917  0.657942E+01  0.196E+01    0.10       1.0  T
   7     -3.3953252 -0.328583E+01  0.178E+01    0.14       1.0  T
   8    -10.9996279 -0.760430E+01  0.114E+01    0.34       1.0  T
   9     -8.6025139  0.239711E+01  0.137E+01    0.04       1.0  T
  10    -12.0123545 -0.340984E+01  0.870E+00    0.11       1.0  T
  11    -11.8674668  0.144888E+00  0.892E+00    0.19       1.0  T
  12    -12.5616299 -0.694163E+00  0.781E+00    0.22       1.0  T
  13    -12.3852271  0.176403E+00  0.754E+00    0.17       1.0  T
  14    -12.5644195 -0.179192E+00  0.730E+00    0.24       1.0  T
  15    -12.6510134 -0.865939E-01  0.696E+00    0.22       1.0  T
  16    -12.7955280 -0.144515E+00  0.630E+00    0.20       1.0  T
  17    -12.9181643 -0.122636E+00  0.576E+00    0.21       1.0  T
  18    -12.9293108 -0.111466E-01  0.571E+00    0.21       1.0  T
  19    -12.9434692 -0.141584E-01  0.531E+00    0.21       1.0  T
  20    -12.9824410 -0.389718E-01  0.374E+00    0.19       1.0  T
  21    -12.9538536  0.285874E-01  0.384E+00    0.19       1.0  T
  22    -13.0089802 -0.551266E-01  0.307E+00    0.19       1.0  T
  23    -13.0262258 -0.172456E-01  0.273E+00    0.20       1.0  T
  24    -13.0398109 -0.135851E-01  0.228E+00    0.20       1.0  T
  25    -13.0402197 -0.408807E-03  0.220E+00    0.18       1.0  T
  26    -13.0465030 -0.628328E-02  0.180E+00    0.18       1.0  T
  27    -13.0350344  0.114686E-01  0.176E+00    0.15       1.0  T
  28    -13.0570687 -0.220344E-01  0.111E+00    0.17       1.0  T
  29    -13.0576362 -0.567492E-03  0.114E+00    0.16       1.0  T
  30    -13.0590571 -0.142089E-02  0.101E+00    0.16       1.0  T
  31    -13.0550373  0.401980E-02  0.883E-01    0.18       1.0  T
  32    -13.0532149  0.182245E-02  0.885E-01    0.19       1.0  T
  33    -13.0546486 -0.143371E-02  0.834E-01    0.19       1.0  T
  34    -13.0640666 -0.941806E-02  0.614E-01    0.18       1.0  T
  35    -13.0647595 -0.692854E-03  0.597E-01    0.18       1.0  T
  36    -13.0656944 -0.934865E-03  0.463E-01    0.17       1.0  T
  37    -13.0665782 -0.883809E-03  0.375E-01    0.17       1.0  T
  38    -13.0673464 -0.768276E-03  0.230E-01    0.17       1.0  T
  39    -13.0675294 -0.182961E-03  0.178E-01    0.17       1.0  T
  40    -13.0677038 -0.174411E-03  0.133E-01    0.17       1.0  T
  41    -13.0677109 -0.711392E-05  0.118E-01    0.17       1.0  T
  42    -13.0678310 -0.120110E-03  0.755E-02    0.17       1.0  T
  43    -13.0678683 -0.372098E-04  0.436E-02    0.17       1.0  T
  44    -13.0678730 -0.478238E-05  0.304E-02    0.17       1.0  T
  45    -13.0678746 -0.155988E-05  0.201E-02    0.17       1.4  T
  46    -13.0678749 -0.307239E-06  0.117E-02    0.17       2.5  T
  47    -13.0678748  0.104037E-06  0.668E-03    0.17       4.3  T
  48    -13.0678751 -0.262756E-06  0.593E-03    0.17       4.9  T
  49    -13.0678753 -0.251036E-06  0.324E-03    0.17       8.9  T
  50    -13.0678753  0.429542E-07  0.311E-03    0.17       9.3  T
  51    -13.0678753 -0.345597E-07  0.173E-03    0.17      16.7  T
  52    -13.0678753 -0.188423E-07  0.105E-03    0.17      27.5  T
  53    -13.0678753 -0.958640E-08  0.564E-04    0.17      51.2  T
  54    -13.0678753 -0.939895E-09  0.485E-04    0.17      59.6  T
  55    -13.0678753  0.108068E-09  0.356E-04    0.17      81.1  T
  56    -13.0678753 -0.656538E-09  0.207E-04    0.17     139.3  T
  57    -13.0678753 -0.213239E-09  0.126E-04    0.17     229.6  T
  58    -13.0678753 -0.238263E-10  0.941E-05    0.17     306.8  T

   *** convergence criteria satisfied after 58 iterations ***

         #    Occupation            Energy/Eh            Energy/eV
      -------------------------------------------------------------
         1        2.0000           -0.4514943             -12.2858
       ...           ...                  ...                  ...
        12        2.0000           -0.2864187              -7.7938
        13        2.0000           -0.2765849              -7.5263
        14        2.0000           -0.2707238              -7.3668
        15        2.0000           -0.2691680              -7.3244
        16        2.0000           -0.2630429              -7.1578
        17        2.0000           -0.2610339              -7.1031
        18        1.9298           -0.2532555              -6.8914 (HOMO)
        19        0.0700           -0.2469557              -6.7200 (LUMO)
        20        0.0003           -0.2416584              -6.5759
        21        0.0000           -0.2367270              -6.4417
        22        0.0000           -0.2347098              -6.3868
        23                         -0.2307256              -6.2784
       ...                                ...                  ...
        48                          3.6710628              99.8947
      -------------------------------------------------------------
                  HL-Gap            0.0062998 Eh            0.1714 eV
             Fermi-level           -0.2501074 Eh           -6.8058 eV

 SCC (total)                   0 d,  0 h,  0 min,  0.075 sec
 SCC setup                      ...        0 min,  0.000 sec (  0.235%)
 Dispersion                     ...        0 min,  0.000 sec (  0.129%)
 classical contributions        ...        0 min,  0.000 sec (  0.047%)
 integral evaluation            ...        0 min,  0.003 sec (  3.435%)
 iterations                     ...        0 min,  0.065 sec ( 85.979%)
 molecular gradient             ...        0 min,  0.007 sec (  9.623%)
 printout                       ...        0 min,  0.000 sec (  0.507%)

         :::::::::::::::::::::::::::::::::::::::::::::::::::::
         ::                     SUMMARY                     ::
         :::::::::::::::::::::::::::::::::::::::::::::::::::::
         :: total energy             -12.772591169583 Eh    ::
         :: gradient norm              0.969153771318 Eh/a0 ::
         :: HOMO-LUMO gap              0.171426259277 eV    ::
         ::.................................................::
         :: SCC energy               -13.067875331303 Eh    ::
         :: -> isotropic ES            0.047732928930 Eh    ::
         :: -> anisotropic ES          0.000260982946 Eh    ::
         :: -> anisotropic XC         -0.041337141784 Eh    ::
         :: -> dispersion             -0.024254570261 Eh    ::
         :: repulsion energy           0.294925369016 Eh    ::
         :: add. restraining           0.000000000000 Eh    ::
         :: total charge              -0.000000000328 e     ::
         :::::::::::::::::::::::::::::::::::::::::::::::::::::


Property printout bound to 'properties.out'

           -------------------------------------------------
          | TOTAL ENERGY              -12.772591169583 Eh   |
          | GRADIENT NORM               0.969153771318 Eh/α |
          | HOMO-LUMO GAP               0.171426259277 eV   |
           -------------------------------------------------

------------------------------------------------------------------------
 * finished run on 2026/04/17 at 12:14:21.099     
------------------------------------------------------------------------
 total:
 * wall-time:     0 d,  0 h,  0 min,  0.089 sec
 *  cpu-time:     0 d,  0 h,  0 min,  0.089 sec
 * ratio c/w:     0.999 speedup
 SCF:
 * wall-time:     0 d,  0 h,  0 min,  0.075 sec
 *  cpu-time:     0 d,  0 h,  0 min,  0.075 sec
 * ratio c/w:     1.000 speedup


-------------------------   --------------------
FINAL SINGLE POINT ENERGY       -12.772591169580
-------------------------   --------------------


-------------
DIPOLE MOMENT
-------------
                                X             Y             Z
Total Dipole Moment    :     -0.15900      -0.27300      -1.78600
                        -----------------------------------------
Magnitude (a.u.)       :      1.81373
Magnitude (Debye)      :      4.61013


------------------
CARTESIAN GRADIENT
------------------

   1   B   :    0.003808717   -0.028538203   -0.018468470
   2   B   :    0.052344913    0.046989042    0.055458242
   3   B   :   -0.028586134   -0.039727630   -0.074809721
   4   B   :   -0.001582958    0.075137478    0.028012173
   5   B   :   -0.126439315    0.655864622   -0.144844041
   6   B   :   -0.055417115   -0.165515697   -0.112252256
   7   B   :   -0.026698662   -0.034979049   -0.031395427
   8   B   :    0.008371764    0.025019442    0.032914023
   9   B   :   -0.025189978    0.034011825   -0.010500146
  10   B   :    0.085673138    0.023303882   -0.024204376
  11   B   :    0.151913651   -0.544822545    0.254439190
  12   B   :   -0.038198020   -0.046743166    0.045650810

Difference to translation invariance:
           :    0.0000000000   -0.0000000000    0.0000000000

Difference to rotation invariance:
           :   -0.0000000217    0.0000000183   -0.0000000321

Norm of the Cartesian gradient     ...    0.9691537713
RMS gradient                       ...    0.1615256286
MAX gradient                       ...    0.6558646221
------------------------------------------------------------------------------
                         ORCA GEOMETRY RELAXATION STEP
------------------------------------------------------------------------------

Reading the OPT-File                    .... done
Getting information on internals        .... done
Copying old internal coords+grads       .... done
Making the new internal coordinates     .... (2022 redundants) done
Validating the new internal coordinates .... (2022 redundants) done
Calculating the B-matrix                .... done
Calculating the G,G- and P matrices     .... done
Transforming gradient to internals      .... done
Projecting the internal gradient        .... done
Number of atoms                         ....  12
Number of internal coordinates          .... 154
Current Energy                          ....   -12.772591170 Eh
Current gradient norm                   ....     0.969153771 Eh/bohr
Maximum allowed component of the step   ....  0.300
Current trust radius                    ....  0.300
Evaluating the initial hessian          ....  (Almloef) done
Projecting the Hessian                  .... done
Forming the augmented Hessian           .... done
Diagonalizing the augmented Hessian     .... done
Last element of RFO vector              ....  0.831629823
Lowest eigenvalues of augmented Hessian:
 -0.272956645  0.010784631  0.011298402  0.011870360  0.012856936
Length of the computed step             ....  0.667761510
Warning: the length of the step is outside the trust region - taking restricted step instead
The input lambda is                     ....     0.009644
   iter:   5  x=   -0.001014  g=31174.131180 f(x)=   139.967582
   iter:  10  x=   -0.120554  g=   57.557577 f(x)=     2.853938
   iter:  15  x=   -0.897773  g=    0.218508 f(x)=     0.036336
   iter:  20  x=   -0.953320  g=    0.122676 f(x)=     0.000000
The output lambda is                    ....    -0.953320 (20 iterations)
The final length of the internal step   ....  0.300000000
Converting the step to Cartesian space:
 Initial RMS(Int)=    0.0241746889
Transforming coordinates:
 Iter   0:  RMS(Cart)=    0.0360605919 RMS(Int)=    0.0241174492
done
Storing new coordinates                 .... done

                                .--------------------.
          ----------------------|Geometry convergence|-------------------------
          Item                value                   Tolerance       Converged
          ---------------------------------------------------------------------
          RMS gradient        0.0403910512            0.0000300000      NO
          MAX gradient        0.3279668632            0.0001000000      NO
          RMS step            0.0241746889            0.0006000000      NO
          MAX step            0.1697394116            0.0010000000      NO
          -------------------------------------------------------------------------
          ........................................................
          Max(Bonds)      0.0898      Max(Angles)    2.45
          Max(Dihed)        2.20      Max(Improp)    0.00
          ---------------------------------------------------------------------

The optimization has not yet converged - more geometry cycles are needed


    ---------------------------------------------------------------------------
                         Redundant Internal Coordinates
                            (Angstroem and degrees)

        Definition                    Value    dE/dq     Step     New-Value
    ----------------------------------------------------------------------------
     1. B(B   1,B   0)                1.7665  0.050837 -0.0257    1.7408   
     2. B(B   3,B   2)                2.2691  0.055634 -0.0308    2.2383   
     3. B(B   5,B   4)                1.3840 -0.109300  0.0332    1.4172   
     4. B(B   6,B   0)                2.6208  0.043573 -0.0272    2.5936   
     5. B(B   6,B   5)                3.2441  0.013377 -0.0039    3.2402   
     6. B(B   6,B   4)                2.8639  0.096473 -0.0281    2.8357   
     7. B(B   7,B   3)                3.6092  0.005582 -0.0049    3.6042   
     8. B(B   7,B   1)                3.4332  0.013635 -0.0082    3.4250   
     9. B(B   8,B   3)                2.8882  0.025661 -0.0128    2.8753   
    10. B(B   8,B   5)                2.2618  0.075170 -0.0368    2.2250   
    11. B(B   8,B   7)                2.9432  0.041792 -0.0206    2.9225   
    12. B(B   8,B   2)                2.9211  0.024164 -0.0120    2.9091   
    13. B(B   9,B   0)                2.4763  0.030489 -0.0173    2.4591   
    14. B(B   9,B   1)                2.3043  0.045811 -0.0242    2.2802   
    15. B(B   9,B   2)                2.4595  0.062244 -0.0330    2.4265   
    16. B(B  10,B   6)                3.6372 -0.110637  0.0287    3.6659   
    17. B(B  10,B   4)                1.1909 -0.327967  0.0898    1.2807   
    18. B(B  10,B   5)                1.6384 -0.166722  0.0450    1.6834   
    19. B(B  11,B   1)                2.1648  0.062144 -0.0320    2.1328   
    20. B(B  11,B   7)                3.0910  0.010544 -0.0068    3.0842   
    21. A(B   1,B   0,B   6)          160.92 -0.009620    0.44    161.35   
    22. A(B   6,B   0,B   9)          130.93  0.004671   -0.19    130.74   
    23. A(B   1,B   0,B   9)           63.21  0.002882   -0.15     63.07   
    24. A(B   0,B   1,B   7)          113.54 -0.004868    0.23    113.77   
    25. A(B   0,B   1,B  11)           95.49  0.004808   -0.24     95.25   
    26. A(B   0,B   1,B   9)           73.60 -0.008666    0.43     74.04   
    27. A(B   7,B   1,B  11)           62.26 -0.002872    0.15     62.41   
    28. A(B   7,B   1,B   9)          106.10  0.002971   -0.15    105.94   
    29. A(B   9,B   1,B  11)          159.97 -0.001293    0.07    160.04   
    30. A(B   3,B   2,B   9)          103.50 -0.009033    0.45    103.96   
    31. A(B   8,B   2,B   9)          113.09  0.002157   -0.05    113.04   
    32. A(B   3,B   2,B   8)           66.25 -0.003067    0.20     66.44   
    33. A(B   2,B   3,B   7)           95.87  0.002429   -0.09     95.77   
    34. A(B   7,B   3,B   8)           52.45  0.006084   -0.30     52.15   
    35. A(B   2,B   3,B   8)           67.78 -0.004097    0.26     68.03   
    36. A(B   6,B   4,B  10)          121.95  0.027082   -0.80    121.15   
    37. A(B   5,B   4,B   6)           92.94 -0.009680    0.28     93.22   
    38. A(B   5,B   4,B  10)           78.64  0.050316   -1.67     76.98   
    39. A(B   6,B   5,B   8)          106.88 -0.015472    0.50    107.38   
    40. A(B   8,B   5,B  10)          105.52  0.048721   -1.23    104.29   
    41. A(B   4,B   5,B   8)          144.56 -0.027229    0.98    145.55   
    42. A(B   6,B   5,B  10)           90.11 -0.017086    0.46     90.58   
    43. A(B   4,B   5,B   6)           61.84  0.030155   -0.95     60.89   
    44. A(B   4,B   5,B  10)           45.45 -0.083066    2.45     47.90   
    45. A(B   0,B   6,B  10)          103.75  0.016933   -0.57    103.18   
    46. A(B   5,B   6,B  10)           26.77 -0.019030    0.56     27.34   
    47. A(B   4,B   6,B  10)           16.13 -0.042376    1.26     17.39   
    48. A(B   4,B   6,B   5)           25.22 -0.020475    0.67     25.89   
    49. A(B   0,B   6,B   5)           86.51  0.016686   -0.63     85.87   
    50. A(B   0,B   6,B   4)          111.12 -0.006934    0.15    111.27   
    51. A(B   1,B   7,B   3)           79.66  0.007254   -0.45     79.21   
    52. A(B   3,B   7,B  11)          113.19  0.015640   -0.89    112.31   
    53. A(B   3,B   7,B   8)           51.08  0.002308   -0.10     50.98   
    54. A(B   1,B   7,B  11)           38.31  0.009380   -0.51     37.80   
    55. A(B   1,B   7,B   8)           80.13  0.007234   -0.35     79.78   
    56. A(B   8,B   7,B  11)           87.96  0.008621   -0.43     87.53   
    57. A(B   3,B   8,B   5)          147.95  0.009159   -0.48    147.47   
    58. A(B   2,B   8,B   7)           98.88 -0.001109   -0.02     98.86   
    59. A(B   3,B   8,B   7)           76.47 -0.008392    0.40     76.87   
    60. A(B   5,B   8,B   7)          127.39  0.004715   -0.12    127.27   
    61. A(B   2,B   8,B   3)           45.98  0.007164   -0.45     45.53   
    62. A(B   2,B   8,B   5)          104.16  0.002572   -0.02    104.14   
    63. A(B   0,B   9,B   2)           81.35 -0.009015    0.46     81.81   
    64. A(B   1,B   9,B   2)          101.60 -0.004860    0.26    101.86   
    65. A(B   0,B   9,B   1)           43.18  0.005784   -0.29     42.90   
    66. A(B   4,B  10,B   5)           55.91  0.032751   -0.79     55.12   
    67. A(B   5,B  10,B   6)           63.11  0.036116   -1.03     62.09   
    68. A(B   4,B  10,B   6)           41.92  0.015294   -0.46     41.46   
    69. A(B   1,B  11,B   7)           79.43 -0.006508    0.36     79.79   
    70. D(B  11,B   1,B   0,B   6)     21.11 -0.003144    0.11     21.23   
    71. D(B   9,B   1,B   0,B   6)   -141.75 -0.003711    0.13   -141.62   
    72. D(B  11,B   1,B   0,B   9)    162.86  0.000568   -0.02    162.84   
    73. D(B   7,B   1,B   0,B   6)    -40.97 -0.002711    0.09    -40.89   
    74. D(B   7,B   1,B   0,B   9)    100.78  0.001000   -0.05    100.73   
    75. D(B   7,B   3,B   2,B   9)    -64.31 -0.002034    0.05    -64.25   
    76. D(B   8,B   3,B   2,B   9)   -109.57 -0.005512    0.20   -109.37   
    77. D(B   7,B   3,B   2,B   8)     45.27  0.003477   -0.15     45.11   
    78. D(B   8,B   5,B   4,B   6)     79.38  0.038672   -1.30     78.08   
    79. D(B   6,B   5,B   4,B  10)   -122.01 -0.026390    0.77   -121.25   
    80. D(B   8,B   5,B   4,B  10)    -42.63  0.012282   -0.53    -43.16   
    81. D(B  10,B   5,B   4,B   6)    122.01  0.026390   -0.77    121.25   
    82. D(B   5,B   6,B   0,B   1)     39.47 -0.000155    0.14     39.61   
    83. D(B  10,B   6,B   4,B   5)    -78.44 -0.051324    1.73    -76.71   
    84. D(B   0,B   6,B   5,B  10)    130.50  0.037492   -0.94    129.57   
    85. D(B  10,B   6,B   5,B   4)     37.17 -0.074552    2.20     39.37   
    86. D(B   0,B   6,B   5,B   8)     24.23 -0.006801    0.17     24.39   
    87. D(B   4,B   6,B   5,B   8)   -143.45  0.030259   -1.09   -144.54   
    88. D(B   4,B   6,B   0,B   9)    -87.92  0.012794   -0.35    -88.27   
    89. D(B   5,B   6,B   4,B  10)     78.44  0.051324   -1.73     76.71   
    90. D(B   0,B   6,B   5,B   4)    167.68 -0.037059    1.26    168.93   
    91. D(B   4,B   6,B   0,B   1)     45.07  0.011939   -0.28     44.79   
    92. D(B   0,B   6,B   4,B   5)    -13.20 -0.039403    1.35    -11.85   
    93. D(B  10,B   6,B   0,B   1)     60.12 -0.024875    0.81     60.93   
    94. D(B   4,B   6,B   5,B  10)    -37.17  0.074552   -2.20    -39.37   
    95. D(B   5,B   6,B   0,B   9)    -93.52  0.000699    0.07    -93.45   
    96. D(B   0,B   6,B   4,B  10)     65.24  0.011921   -0.38     64.85   
    97. D(B  11,B   7,B   1,B   0)     83.61  0.007320   -0.36     83.26   
    98. D(B   8,B   7,B   1,B   9)     63.05 -0.003370    0.17     63.22   
    99. D(B   8,B   7,B   1,B   0)    -15.71  0.006114   -0.30    -16.01   
   100. D(B   8,B   7,B   1,B  11)    -99.33 -0.001206    0.06    -99.27   
   101. D(B   1,B   7,B   3,B   8)     85.60  0.003286   -0.08     85.52   
   102. D(B   1,B   7,B   3,B   2)     29.56  0.007600   -0.35     29.21   
   103. D(B  11,B   7,B   3,B   8)     66.69 -0.001641    0.21     66.90   
   104. D(B  11,B   7,B   3,B   2)     10.65  0.002673   -0.06     10.59   
   105. D(B   8,B   7,B   3,B   2)    -56.04  0.004314   -0.27    -56.31   
   106. D(B   3,B   7,B   1,B   0)    -67.66  0.005019   -0.27    -67.92   
   107. D(B  11,B   7,B   1,B   9)    162.38 -0.002164    0.11    162.50   
   108. D(B   3,B   8,B   7,B   1)    -84.62 -0.003375    0.29    -84.33   
   109. D(B   3,B   8,B   7,B  11)   -122.36 -0.012175    0.77   -121.59   
   110. D(B   5,B   8,B   7,B   3)    155.97  0.009528   -0.42    155.56   
   111. D(B   5,B   8,B   7,B  11)     33.61 -0.002648    0.35     33.96   
   112. D(B   2,B   8,B   5,B   6)     30.76  0.006590   -0.19     30.58   
   113. D(B   2,B   8,B   5,B  10)    -64.20  0.013901   -0.44    -64.63   
   114. D(B   2,B   8,B   5,B   4)    -34.14 -0.033318    1.10    -33.04   
   115. D(B   3,B   8,B   5,B   6)     49.36  0.012702   -0.36     49.00   
   116. D(B   3,B   8,B   5,B  10)    -45.60  0.020013   -0.61    -46.21   
   117. D(B   3,B   8,B   5,B   4)    -15.54 -0.027206    0.92    -14.61   
   118. D(B   7,B   8,B   3,B   2)    116.96  0.002911   -0.17    116.79   
   119. D(B   2,B   8,B   3,B   7)   -116.96 -0.002911    0.17   -116.79   
   120. D(B   5,B   8,B   3,B   7)   -142.44 -0.007957    0.21   -142.23   
   121. D(B   5,B   8,B   3,B   2)    -25.47 -0.005045    0.04    -25.44   
   122. D(B   7,B   8,B   2,B   3)    -61.29  0.006708   -0.32    -61.62   
   123. D(B   5,B   8,B   7,B   1)     71.35  0.006152   -0.13     71.22   
   124. D(B   7,B   8,B   2,B   9)     33.85 -0.005827    0.30     34.15   
   125. D(B   3,B   8,B   2,B   9)     95.15 -0.012535    0.62     95.77   
   126. D(B   5,B   8,B   2,B   3)    166.39  0.000822   -0.16    166.22   
   127. D(B   2,B   8,B   7,B  11)    -81.92 -0.007684    0.46    -81.45   
   128. D(B   5,B   8,B   2,B   9)    -98.47 -0.011714    0.46    -98.01   
   129. D(B   0,B   9,B   1,B  11)    -58.93  0.009707   -0.47    -59.40   
   130. D(B   2,B   9,B   0,B   6)     47.12 -0.006972    0.31     47.43   
   131. D(B   2,B   9,B   0,B   1)   -117.34  0.000577   -0.04   -117.38   
   132. D(B   1,B   9,B   0,B   6)    164.46 -0.007549    0.35    164.81   
   133. D(B   0,B   9,B   2,B   3)    119.57 -0.004283    0.25    119.82   
   134. D(B   1,B   9,B   2,B   8)     11.58 -0.002168    0.10     11.67   
   135. D(B   1,B   9,B   2,B   3)     81.21 -0.008607    0.47     81.68   
   136. D(B   2,B   9,B   1,B   7)    -46.69  0.003309   -0.15    -46.84   
   137. D(B   2,B   9,B   1,B  11)      4.78  0.005517   -0.27      4.51   
   138. D(B   2,B   9,B   1,B   0)     63.70 -0.004190    0.21     63.91   
   139. D(B   0,B   9,B   2,B   8)     49.94  0.002156   -0.12     49.81   
   140. D(B   0,B   9,B   1,B   7)   -110.39  0.007499   -0.36   -110.75   
   141. D(B   5,B  10,B   6,B   4)     67.92  0.011683   -0.11     67.81   
   142. D(B   5,B  10,B   6,B   0)    -51.38  0.033631   -0.78    -52.16   
   143. D(B   4,B  10,B   6,B   5)    -67.92 -0.011683    0.11    -67.81   
   144. D(B   4,B  10,B   6,B   0)   -119.31  0.021949   -0.67   -119.97   
   145. D(B   6,B  10,B   5,B   8)    107.57 -0.016720    0.54    108.11   
   146. D(B   6,B  10,B   5,B   4)    -48.38  0.000441    0.03    -48.35   
   147. D(B   4,B  10,B   5,B   8)    155.95 -0.017161    0.51    156.46   
   148. D(B   4,B  10,B   5,B   6)     48.38 -0.000441   -0.03     48.35   
   149. D(B   6,B  10,B   4,B   5)     86.35  0.013914   -0.53     85.82   
   150. D(B   5,B  10,B   4,B   6)    -86.35 -0.013914    0.53    -85.82   
   151. D(B   1,B  11,B   7,B   3)     30.96  0.002296   -0.18     30.78   
   152. D(B   1,B  11,B   7,B   8)     76.60  0.003165   -0.15     76.45   
   153. D(B   7,B  11,B   1,B   9)    -58.12 -0.003878    0.20    -57.92   
   154. D(B   7,B  11,B   1,B   0)   -113.76  0.007730   -0.37   -114.12   
    ----------------------------------------------------------------------------

Geometry step timings:
Preparation and reading OPT file:      0.000 s ( 0.547 %)
Internal coordinates            :      0.000 s ( 0.997 %)
B/P matrices and projection     :      0.002 s (16.624 %)
Hessian update/contruction      :      0.002 s (18.041 %)
Making the step                 :      0.005 s (45.035 %)
Converting the step to Cartesian:      0.000 s ( 2.727 %)
Storing new data                :      0.000 s ( 1.183 %)
Checking convergence            :      0.000 s ( 0.694 %)
Final printing                  :      0.001 s (14.142 %)
Total time                      :      0.010 s

Time for energy+gradient        :      0.101 s
Time for complete geometry iter :      0.114 s

         *************************************************************
         *                GEOMETRY OPTIMIZATION CYCLE   2            *
         *************************************************************
---------------------------------
CARTESIAN COORDINATES (ANGSTROEM)
---------------------------------
  B     1.673808   -1.216291    0.083835
  B     2.270951   -0.247206    1.400951
  B     0.860132    1.425452   -1.527211
  B     0.297130    3.316441   -0.470267
  B    -2.538111   -1.748267   -1.358967
  B    -2.291958   -0.839645   -0.299461
  B     0.126754   -2.717739   -1.358072
  B    -0.091894    1.812115    2.781778
  B    -1.410387    1.123325    0.266158
  B     2.967787    0.789628   -0.506625
  B    -2.830233   -0.614031   -1.878021
  B     0.966019   -1.083783    2.865901

----------------------------
CARTESIAN COORDINATES (A.U.)
----------------------------
  NO LB    ZA    FRAG    MASS        X           Y           Z
   0 B   5.0000    0    10.810    3.163040   -2.298456    0.158426
   1 B   5.0000    0    10.810    4.291476   -0.467151    2.647413
   2 B   5.0000    0    10.810    1.625413    2.693715   -2.886010
   3 B   5.0000    0    10.810    0.561494    6.267166   -0.888676
   4 B   5.0000    0    10.810   -4.796334   -3.303747   -2.568075
   5 B   5.0000    0    10.810   -4.331173   -1.586700   -0.565900
   6 B   5.0000    0    10.810    0.239531   -5.135782   -2.566384
   7 B   5.0000    0    10.810   -0.173654    3.424401    5.256798
   8 B   5.0000    0    10.810   -2.665246    2.122777    0.502966
   9 B   5.0000    0    10.810    5.608304    1.492182   -0.957382
  10 B   5.0000    0    10.810   -5.348364   -1.160350   -3.548945
  11 B   5.0000    0    10.810    1.825512   -2.048053    5.415768

      -----------------------------------------------------------      
     |                   =====================                   |     
     |                           x T B                           |     
     |                   =====================                   |     
     |                         S. Grimme                         |     
     |          Mulliken Center for Theoretical Chemistry        |     
     |                    University of Bonn                     |     
      -----------------------------------------------------------      

   * xtb version 6.6.1 (unknown) compiled by 'builduser@buildhost' on 2023-08-07

   xtb is free software: you can redistribute it and/or modify it under
   the terms of the GNU Lesser General Public License as published by
   the Free Software Foundation, either version 3 of the License, or
   (at your option) any later version.
   
   xtb is distributed in the hope that it will be useful,
   but WITHOUT ANY WARRANTY; without even the implied warranty of
   MERCHANTABILITY or FITNESS FOR A PARTICULAR PURPOSE.  See the
   GNU Lesser General Public License for more details.
   
   Cite this work as:
   * C. Bannwarth, E. Caldeweyher, S. Ehlert, A. Hansen, P. Pracht,
     J. Seibert, S. Spicher, S. Grimme, WIREs Comput. Mol. Sci., 2020, 11,
     e01493. DOI: 10.1002/wcms.1493
   
   for GFN2-xTB:
   * C. Bannwarth, S. Ehlert and S. Grimme., J. Chem. Theory Comput., 2019,
     15, 1652-1671. DOI: 10.1021/acs.jctc.8b01176
   for GFN1-xTB:
   * S. Grimme, C. Bannwarth, P. Shushkov, J. Chem. Theory Comput., 2017,
     13, 1989-2009. DOI: 10.1021/acs.jctc.7b00118
   for GFN0-xTB:
   * P. Pracht, E. Caldeweyher, S. Ehlert, S. Grimme, ChemRxiv, 2019, preprint.
     DOI: 10.26434/chemrxiv.8326202.v1
   for GFN-FF:
   * S. Spicher and S. Grimme, Angew. Chem. Int. Ed., 2020, 59, 15665-15673.
     DOI: 10.1002/anie.202004239
   
   for ALPB and GBSA implicit solvation:
   * S. Ehlert, M. Stahn, S. Spicher, S. Grimme, J. Chem. Theory Comput.,
     2021, 17, 4250-4261. DOI: 10.1021/acs.jctc.1c00471
   
   for DFT-D4:
   * E. Caldeweyher, C. Bannwarth and S. Grimme, J. Chem. Phys., 2017,
     147, 034112. DOI: 10.1063/1.4993215
   * E. Caldeweyher, S. Ehlert, A. Hansen, H. Neugebauer, S. Spicher,
     C. Bannwarth and S. Grimme, J. Chem. Phys., 2019, 150, 154122.
     DOI: 10.1063/1.5090222
   * E. Caldeweyher, J.-M. Mewes, S. Ehlert and S. Grimme, Phys. Chem. Chem. Phys.
     2020, 22, 8499-8512. DOI: 10.1039/D0CP00502A
   
   for sTDA-xTB:
   * S. Grimme and C. Bannwarth, J. Chem. Phys., 2016, 145, 054103.
     DOI: 10.1063/1.4959605
   
   in the mass-spec context:
   * V. Asgeirsson, C. Bauer and S. Grimme, Chem. Sci., 2017, 8, 4879.
     DOI: 10.1039/c7sc00601b
   * J. Koopman and S. Grimme, ACS Omega 2019, 4, 12, 15120-15133.
     DOI: 10.1021/acsomega.9b02011
   
   for metadynamics refer to:
   * S. Grimme, J. Chem. Theory Comput., 2019, 155, 2847-2862
     DOI: 10.1021/acs.jctc.9b00143
   
   for SPH calculations refer to:
   * S. Spicher and S. Grimme, J. Chem. Theory Comput., 2021, 17, 1701-1714
     DOI: 10.1021/acs.jctc.0c01306
   
   with help from (in alphabetical order)
   P. Atkinson, C. Bannwarth, F. Bohle, G. Brandenburg, E. Caldeweyher
   M. Checinski, S. Dohm, S. Ehlert, S. Ehrlich, I. Gerasimov, C. Hölzer
   A. Katbashev, J. Koopman, C. Lavigne, S. Lehtola, F. März, M. Müller,
   F. Musil, H. Neugebauer, J. Pisarek, C. Plett, P. Pracht, F. Pultar,
   J. Seibert, P. Shushkov, S. Spicher, M. Stahn, M. Steiner, T. Strunk,
   J. Stückrath, T. Rose, and J. Unsleber
   
 * started run on 2026/04/17 at 12:14:21.128     

           -------------------------------------------------
          |                Calculation Setup                |
           -------------------------------------------------

          program call               : /usr/bin/xtb random_d2.10_004_m1_XTB.xyz --grad -c 0 -u 0 -P 1 --namespace random_d2.10_004_m1 --input random_d2.10_004_m1_XTB.input.tmp --acc 0.200000
          calculation namespace      : random_d2.10_004_m1
          coordinate file            : random_d2.10_004_m1_XTB.xyz
          omp threads                :                     1

   ID    Z sym.   atoms
    1    5 B      1-12

molecular fragmentation (1/2 indicates fragments):
112222222222
# atoms in fragment 1/2:     2    10
 fragment masses (1/2) :       21.62      108.11
CMA distance (Bohr)    :   5.059
constraining FC (au)   :  0.0500

           -------------------------------------------------
          |                 G F N 2 - x T B                 |
           -------------------------------------------------

        Reference                      10.1021/acs.jctc.8b01176
      * Hamiltonian:
        H0-scaling (s, p, d)           1.850000    2.230000    2.230000
        zeta-weighting                 0.500000
      * Dispersion:
        s8                             2.700000
        a1                             0.520000
        a2                             5.000000
        s9                             5.000000
      * Repulsion:
        kExp                           1.500000    1.000000
        rExp                           1.000000
      * Coulomb:
        alpha                          2.000000
        third order                    shell-resolved
        anisotropic                    true
        a3                             3.000000
        a5                             4.000000
        cn-shift                       1.200000
        cn-exp                         4.000000
        max-rad                        5.000000

q/qsh data taken from xtbrestart
CAMM data taken from xtbrestart

          ...................................................
          :                      SETUP                      :
          :.................................................:
          :  # basis functions                  48          :
          :  # atomic orbitals                  48          :
          :  # shells                           24          :
          :  # electrons                        36          :
          :  max. iterations                   250          :
          :  Hamiltonian                  GFN2-xTB          :
          :  restarted?                       true          :
          :  GBSA solvation                  false          :
          :  PC potential                    false          :
          :  electronic temp.          300.0000000     K    :
          :  accuracy                    0.2000000          :
          :  -> integral cutoff          0.3198970E+02      :
          :  -> integral neglect         0.2000000E-08      :
          :  -> SCF convergence          0.2000000E-06 Eh   :
          :  -> wf. convergence          0.2000000E-04 e    :
          :  Broyden damping             0.4000000          :
          ...................................................

 iter      E             dE          RMSdq      gap      omega  full diag
   1    -13.0629368 -0.130629E+02  0.521E-01    0.17       0.0  T
   2    -12.9735457  0.893911E-01  0.188E+00    0.13       1.0  T
   3    -13.0320456 -0.584998E-01  0.116E+00    0.18       1.0  T
   4    -13.0364155 -0.436998E-02  0.137E+00    0.18       1.0  T
   5    -13.0301897  0.622581E-02  0.131E+00    0.21       1.0  T
   6    -13.0469560 -0.167663E-01  0.845E-01    0.13       1.0  T
   7    -13.0572294 -0.102734E-01  0.576E-01    0.17       1.0  T
   8    -13.0548473  0.238210E-02  0.636E-01    0.15       1.0  T
   9    -13.0626066 -0.775933E-02  0.273E-01    0.16       1.0  T
  10    -13.0636242 -0.101753E-02  0.126E-01    0.17       1.0  T
  11    -13.0634374  0.186748E-03  0.161E-01    0.17       1.0  T
  12    -13.0634436 -0.623091E-05  0.166E-01    0.17       1.0  T
  13    -13.0634830 -0.393616E-04  0.156E-01    0.17       1.0  T
  14    -13.0637433 -0.260264E-03  0.824E-02    0.17       1.0  T
  15    -13.0637773 -0.340614E-04  0.642E-02    0.17       1.0  T
  16    -13.0638562 -0.788700E-04  0.169E-02    0.17       1.7  T
  17    -13.0638585 -0.233930E-05  0.143E-02    0.17       2.0  T
  18    -13.0638578  0.727466E-06  0.120E-02    0.17       2.4  T
  19    -13.0638604 -0.254975E-05  0.554E-03    0.17       5.2  T
  20    -13.0638607 -0.315615E-06  0.443E-03    0.17       6.5  T
  21    -13.0638608 -0.130247E-06  0.266E-03    0.17      10.9  T
  22    -13.0638609 -0.956099E-07  0.107E-03    0.17      27.1  T
  23    -13.0638609 -0.178113E-07  0.497E-04    0.17      58.1  T
  24    -13.0638609 -0.876081E-09  0.259E-04    0.17     111.3  T
  25    -13.0638609 -0.757566E-09  0.171E-04    0.17     168.7  T
  26    -13.0638609 -0.479570E-09  0.469E-05    0.17     615.7  T

   *** convergence criteria satisfied after 26 iterations ***

         #    Occupation            Energy/Eh            Energy/eV
      -------------------------------------------------------------
         1        2.0000           -0.4489155             -12.2156
       ...           ...                  ...                  ...
        12        2.0000           -0.2856415              -7.7727
        13        2.0000           -0.2763527              -7.5199
        14        2.0000           -0.2696129              -7.3365
        15        2.0000           -0.2688739              -7.3164
        16        2.0000           -0.2627512              -7.1498
        17        2.0000           -0.2599682              -7.0741
        18        1.9218           -0.2526272              -6.8743 (HOMO)
        19        0.0780           -0.2465418              -6.7087 (LUMO)
        20        0.0003           -0.2410679              -6.5598
        21        0.0000           -0.2373606              -6.4589
        22        0.0000           -0.2350914              -6.3972
        23                         -0.2317773              -6.3070
       ...                                ...                  ...
        48                          2.4502121              66.6737
      -------------------------------------------------------------
                  HL-Gap            0.0060854 Eh            0.1656 eV
             Fermi-level           -0.2495859 Eh           -6.7916 eV

 SCC (total)                   0 d,  0 h,  0 min,  0.040 sec
 SCC setup                      ...        0 min,  0.000 sec (  0.365%)
 Dispersion                     ...        0 min,  0.000 sec (  0.188%)
 classical contributions        ...        0 min,  0.000 sec (  0.074%)
 integral evaluation            ...        0 min,  0.002 sec (  5.903%)
 iterations                     ...        0 min,  0.031 sec ( 75.886%)
 molecular gradient             ...        0 min,  0.007 sec ( 16.782%)
 printout                       ...        0 min,  0.000 sec (  0.746%)

         :::::::::::::::::::::::::::::::::::::::::::::::::::::
         ::                     SUMMARY                     ::
         :::::::::::::::::::::::::::::::::::::::::::::::::::::
         :: total energy             -12.884331412259 Eh    ::
         :: gradient norm              0.505800197269 Eh/a0 ::
         :: HOMO-LUMO gap              0.165591874937 eV    ::
         ::.................................................::
         :: SCC energy               -13.063860917850 Eh    ::
         :: -> isotropic ES            0.048812477063 Eh    ::
         :: -> anisotropic ES          0.000422668630 Eh    ::
         :: -> anisotropic XC         -0.041657134155 Eh    ::
         :: -> dispersion             -0.024292365903 Eh    ::
         :: repulsion energy           0.179182065480 Eh    ::
         :: add. restraining           0.000000000000 Eh    ::
         :: total charge              -0.000000000183 e     ::
         :::::::::::::::::::::::::::::::::::::::::::::::::::::


Property printout bound to 'properties.out'

           -------------------------------------------------
          | TOTAL ENERGY              -12.884331412259 Eh   |
          | GRADIENT NORM               0.505800197269 Eh/α |
          | HOMO-LUMO GAP               0.165591874937 eV   |
           -------------------------------------------------

------------------------------------------------------------------------
 * finished run on 2026/04/17 at 12:14:21.183     
------------------------------------------------------------------------
 total:
 * wall-time:     0 d,  0 h,  0 min,  0.055 sec
 *  cpu-time:     0 d,  0 h,  0 min,  0.055 sec
 * ratio c/w:     0.999 speedup
 SCF:
 * wall-time:     0 d,  0 h,  0 min,  0.041 sec
 *  cpu-time:     0 d,  0 h,  0 min,  0.040 sec
 * ratio c/w:     0.999 speedup


-------------------------   --------------------
FINAL SINGLE POINT ENERGY       -12.884331412260
-------------------------   --------------------


-------------
DIPOLE MOMENT
-------------
                                X             Y             Z
Total Dipole Moment    :     -0.14100      -0.30200      -1.86200
                        -----------------------------------------
Magnitude (a.u.)       :      1.89159
Magnitude (Debye)      :      4.80805


------------------
CARTESIAN GRADIENT
------------------

   1   B   :    0.004990170   -0.026371327   -0.015336973
   2   B   :    0.050485337    0.045471829    0.053601685
   3   B   :   -0.030005871   -0.040664188   -0.075176072
   4   B   :   -0.001539205    0.076519861    0.027865356
   5   B   :   -0.055186511    0.327613332   -0.038882976
   6   B   :   -0.043222754   -0.141835815   -0.066699034
   7   B   :   -0.024759778   -0.036451318   -0.032207854
   8   B   :    0.008707283    0.025447255    0.033648736
   9   B   :   -0.025549657    0.034676816   -0.011115936
  10   B   :    0.087411538    0.023471140   -0.024109421
  11   B   :    0.066272373   -0.240673095    0.103097843
  12   B   :   -0.037602925   -0.047204490    0.045314645

Difference to translation invariance:
           :   -0.0000000000    0.0000000000    0.0000000000

Difference to rotation invariance:
           :   -0.0000000092   -0.0000000436    0.0000000345

Norm of the Cartesian gradient     ...    0.5058001973
RMS gradient                       ...    0.0843000329
MAX gradient                       ...    0.3276133320
------------------------------------------------------------------------------
                         ORCA GEOMETRY RELAXATION STEP
------------------------------------------------------------------------------

Reading the OPT-File                    .... done
Getting information on internals        .... done
Copying old internal coords+grads       .... done
Making the new internal coordinates     .... (2022 redundants) done
Validating the new internal coordinates .... (2022 redundants) done
Calculating the B-matrix                .... done
Calculating the G,G- and P matrices     .... done
Transforming gradient to internals      .... done
Projecting the internal gradient        .... done
Number of atoms                         ....  12
Number of internal coordinates          .... 154
Current Energy                          ....   -12.884331412 Eh
Current gradient norm                   ....     0.505800197 Eh/bohr
Maximum allowed component of the step   ....  0.300
Current trust radius                    ....  0.300
Updating the Hessian (BFGS)             .... done
Forming the augmented Hessian           .... done
Diagonalizing the augmented Hessian     .... done
Last element of RFO vector              ....  0.767919719
Lowest eigenvalues of augmented Hessian:
 -0.184646420  0.010783036  0.011293409  0.011881500  0.012903885
Length of the computed step             ....  0.834131595
Warning: the length of the step is outside the trust region - taking restricted step instead
The input lambda is                     ....     0.009631
   iter:   5  x=   -0.000622  g=39518.937798 f(x)=   169.959540
   iter:  10  x=   -0.110312  g=   76.270579 f(x)=     3.374094
   iter:  15  x=   -0.606113  g=    0.393573 f(x)=     0.032957
   iter:  20  x=   -0.629635  g=    0.238642 f(x)=     0.000000
The output lambda is                    ....    -0.629635 (20 iterations)
The final length of the internal step   ....  0.300000000
Converting the step to Cartesian space:
 Initial RMS(Int)=    0.0241746889
Transforming coordinates:
 Iter   0:  RMS(Cart)=    0.0450623758 RMS(Int)=    0.0241398181
done
Storing new coordinates                 .... done
The predicted energy change is          ....    -0.066710790
Previously predicted energy change      ....    -0.115476812
Actually observed energy change         ....    -0.111740243
Ratio of predicted to observed change   ....     0.967642253
New trust radius                        ....     0.450000000

                                .--------------------.
          ----------------------|Geometry convergence|-------------------------
          Item                value                   Tolerance       Converged
          ---------------------------------------------------------------------
          Energy change      -0.1117402427            0.0000010000      NO
          RMS gradient        0.0225823712            0.0000300000      NO
          MAX gradient        0.1502186564            0.0001000000      NO
          RMS step            0.0241746889            0.0006000000      NO
[...]
   6    -14.5209783 -0.995464E-03  0.531E-02    0.50       1.0  T
   7    -14.5210149 -0.366036E-04  0.321E-02    0.49       1.0  T
   8    -14.5210326 -0.177507E-04  0.192E-02    0.50       1.5  T
   9    -14.5210370 -0.435111E-05  0.153E-02    0.50       1.9  T
  10    -14.5210396 -0.259566E-05  0.880E-03    0.50       3.3  T
  11    -14.5210416 -0.200021E-05  0.153E-03    0.50      18.8  T
  12    -14.5210416  0.134228E-08  0.119E-03    0.50      24.2  T
  13    -14.5210416 -0.214314E-07  0.371E-04    0.50      77.8  T
  14    -14.5210416 -0.234650E-08  0.215E-04    0.50     134.2  T
  15    -14.5210416 -0.764645E-09  0.695E-05    0.50     415.2  T
  16    -14.5210416 -0.381064E-10  0.491E-05    0.50     588.3  T

   *** convergence criteria satisfied after 16 iterations ***

         #    Occupation            Energy/Eh            Energy/eV
      -------------------------------------------------------------
         1        2.0000           -0.4178586             -11.3705
       ...           ...                  ...                  ...
        12        2.0000           -0.2928629              -7.9692
        13        2.0000           -0.2855201              -7.7694
        14        2.0000           -0.2738402              -7.4516
        15        2.0000           -0.2715491              -7.3892
        16        2.0000           -0.2592490              -7.0545
        17        2.0000           -0.2542625              -6.9188
        18        1.9999           -0.2422196              -6.5911 (HOMO)
        19        0.0001           -0.2240143              -6.0957 (LUMO)
        20                         -0.2000695              -5.4442
        21                         -0.1892166              -5.1488
        22                         -0.1827161              -4.9720
        23                         -0.1649540              -4.4886
       ...                                ...                  ...
        48                          1.2841323              34.9430
      -------------------------------------------------------------
                  HL-Gap            0.0182053 Eh            0.4954 eV
             Fermi-level           -0.2331169 Eh           -6.3434 eV

 SCC (total)                   0 d,  0 h,  0 min,  0.030 sec
 SCC setup                      ...        0 min,  0.000 sec (  0.666%)
 Dispersion                     ...        0 min,  0.000 sec (  0.356%)
 classical contributions        ...        0 min,  0.000 sec (  0.126%)
 integral evaluation            ...        0 min,  0.003 sec ( 10.519%)
 iterations                     ...        0 min,  0.018 sec ( 61.052%)
 molecular gradient             ...        0 min,  0.008 sec ( 25.928%)
 printout                       ...        0 min,  0.000 sec (  1.261%)

         :::::::::::::::::::::::::::::::::::::::::::::::::::::
         ::                     SUMMARY                     ::
         :::::::::::::::::::::::::::::::::::::::::::::::::::::
         :: total energy             -14.244528318669 Eh    ::
         :: gradient norm              0.021915437023 Eh/a0 ::
         :: HOMO-LUMO gap              0.495390901849 eV    ::
         ::.................................................::
         :: SCC energy               -14.521041592409 Eh    ::
         :: -> isotropic ES            0.087950557148 Eh    ::
         :: -> anisotropic ES          0.002440726880 Eh    ::
         :: -> anisotropic XC         -0.032059751049 Eh    ::
         :: -> dispersion             -0.012830205861 Eh    ::
         :: repulsion energy           0.276494500586 Eh    ::
         :: add. restraining           0.000000000000 Eh    ::
         :: total charge               0.000000000433 e     ::
         :::::::::::::::::::::::::::::::::::::::::::::::::::::


Property printout bound to 'properties.out'

           -------------------------------------------------
          | TOTAL ENERGY              -14.244528318669 Eh   |
          | GRADIENT NORM               0.021915437023 Eh/α |
          | HOMO-LUMO GAP               0.495390901849 eV   |
           -------------------------------------------------

------------------------------------------------------------------------
 * finished run on 2026/04/17 at 12:14:24.591     
------------------------------------------------------------------------
 total:
 * wall-time:     0 d,  0 h,  0 min,  0.044 sec
 *  cpu-time:     0 d,  0 h,  0 min,  0.044 sec
 * ratio c/w:     0.999 speedup
 SCF:
 * wall-time:     0 d,  0 h,  0 min,  0.030 sec
 *  cpu-time:     0 d,  0 h,  0 min,  0.030 sec
 * ratio c/w:     1.000 speedup


-------------------------   --------------------
FINAL SINGLE POINT ENERGY       -14.244528318670
-------------------------   --------------------


-------------
DIPOLE MOMENT
-------------
                                X             Y             Z
Total Dipole Moment    :      0.16400      -0.51100       0.14900
                        -----------------------------------------
Magnitude (a.u.)       :      0.55697
Magnitude (Debye)      :      1.41571


------------------
CARTESIAN GRADIENT
------------------

   1   B   :   -0.003035952   -0.004159618   -0.008697772
   2   B   :   -0.002680598    0.001445144    0.003938659
   3   B   :   -0.000486980   -0.005504227    0.002429504
   4   B   :    0.005044491    0.002701524   -0.001132514
   5   B   :    0.002814056    0.002423272    0.003512365
   6   B   :   -0.000902894   -0.010795719   -0.005965388
   7   B   :   -0.000939273    0.002817549    0.002745869
   8   B   :    0.002311980   -0.001507928   -0.000519140
   9   B   :   -0.002991235    0.001045191    0.003150373
  10   B   :   -0.001790274    0.004161438   -0.000736103
  11   B   :    0.000403822    0.005098288    0.001440527
  12   B   :    0.002252858    0.002275087   -0.000166379

Difference to translation invariance:
           :    0.0000000000   -0.0000000000   -0.0000000000

Difference to rotation invariance:
           :   -0.0000000002    0.0000000223    0.0000000242

Norm of the Cartesian gradient     ...    0.0219154370
RMS gradient                       ...    0.0036525728
MAX gradient                       ...    0.0107957189
------------------------------------------------------------------------------
                         ORCA GEOMETRY RELAXATION STEP
------------------------------------------------------------------------------

Reading the OPT-File                    .... done
Getting information on internals        .... done
Copying old internal coords+grads       .... done
Making the new internal coordinates     .... (2022 redundants) done
Validating the new internal coordinates .... (2022 redundants) done
Calculating the B-matrix                .... done
Calculating the G,G- and P matrices     .... done
Transforming gradient to internals      .... done
Projecting the internal gradient        .... done
Number of atoms                         ....  12
Number of internal coordinates          ....  57
Current Energy                          ....   -14.244528319 Eh
Current gradient norm                   ....     0.021915437 Eh/bohr
Maximum allowed component of the step   ....  0.300
Current trust radius                    ....  0.207
Updating the Hessian (BFGS)             .... done
Forming the augmented Hessian           .... done
Diagonalizing the augmented Hessian     .... done
Last element of RFO vector              ....  0.971889460
Lowest eigenvalues of augmented Hessian:
 -0.000814300  0.000269690  0.006929935  0.012924772  0.020938542
Length of the computed step             ....  0.242247331
Warning: the length of the step is outside the trust region - taking restricted step instead
The input lambda is                     ....    -0.000773
   iter:   5  x=   -0.001075  g=   43.297830 f(x)=     0.000000
The output lambda is                    ....    -0.001075 (6 iterations)
The final length of the internal step   ....  0.207407407
Converting the step to Cartesian space:
 Initial RMS(Int)=    0.0274717822
Transforming coordinates:
 Iter   0:  RMS(Cart)=    0.0198612561 RMS(Int)=    0.0263407394
done
Storing new coordinates                 .... done
The predicted energy change is          ....    -0.000423755
Previously predicted energy change      ....    -0.001029593
Actually observed energy change         ....    -0.000850070
Ratio of predicted to observed change   ....     0.825637056
New trust radius                        ....     0.311111111

                                .--------------------.
          ----------------------|Geometry convergence|-------------------------
          Item                value                   Tolerance       Converged
          ---------------------------------------------------------------------
          Energy change      -0.0008500702            0.0000010000      NO
          RMS gradient        0.0020949258            0.0000300000      NO
          MAX gradient        0.0058972327            0.0001000000      NO
          RMS step            0.0274717822            0.0006000000      NO
          MAX step            0.1107776991            0.0010000000      NO
          -------------------------------------------------------------------------
          ........................................................
          Max(Bonds)      0.0308      Max(Angles)    1.86
          Max(Dihed)        6.35      Max(Improp)    0.00
          ---------------------------------------------------------------------

The optimization has not yet converged - more geometry cycles are needed


    ---------------------------------------------------------------------------
                         Redundant Internal Coordinates
                            (Angstroem and degrees)

        Definition                    Value    dE/dq     Step     New-Value
    ----------------------------------------------------------------------------
     1. B(B   1,B   0)                1.7540  0.002882 -0.0009    1.7531   
     2. B(B   3,B   2)                1.5004 -0.003581  0.0036    1.5039   
     3. B(B   5,B   4)                2.5762 -0.005084  0.0308    2.6070   
     4. B(B   6,B   4)                1.5163 -0.003375 -0.0022    1.5141   
     5. B(B   6,B   0)                1.5107 -0.004083  0.0040    1.5147   
     6. B(B   8,B   5)                1.5423  0.002461 -0.0064    1.5359   
     7. B(B   8,B   3)                1.5281  0.002388 -0.0057    1.5224   
     8. B(B   8,B   7)                1.6589  0.002040 -0.0031    1.6558   
     9. B(B   9,B   2)                1.4993 -0.005897  0.0055    1.5048   
    10. B(B   9,B   1)                1.5389 -0.000396 -0.0029    1.5360   
    11. B(B  10,B   5)                1.5124 -0.004351  0.0031    1.5155   
    12. B(B  10,B   4)                1.4887  0.000776 -0.0006    1.4881   
    13. B(B  11,B   1)                1.5274 -0.003287  0.0020    1.5293   
    14. B(B  11,B   0)                1.6113  0.001960 -0.0088    1.6025   
    15. A(B   1,B   0,B  11)           53.78 -0.001963    0.32     54.10   
    16. A(B   6,B   0,B  11)          130.18 -0.003541    0.76    130.95   
    17. A(B   0,B   1,B  11)           58.33  0.000559   -0.40     57.93   
    18. A(B   9,B   1,B  11)          135.55  0.000122    0.35    135.90   
    19. A(B   0,B   1,B   9)          131.00  0.000556    0.11    131.11   
    20. A(B   3,B   2,B   9)          123.98  0.000348   -0.23    123.75   
    21. A(B   2,B   3,B   8)          139.66 -0.002330    1.02    140.67   
    22. A(B   5,B   4,B   6)           85.94 -0.001763    0.44     86.38   
    23. A(B   6,B   4,B  10)          116.91 -0.001626   -0.29    116.62   
    24. A(B   5,B   4,B  10)           31.13  0.000159   -0.84     30.29   
    25. A(B   8,B   5,B  10)          176.21  0.002251    1.49    177.70   
    26. A(B   4,B   5,B  10)           30.59  0.001218   -1.02     29.57   
    27. A(B   4,B   5,B   8)          145.71  0.000995   -0.73    144.97   
    28. A(B   0,B   6,B   4)          145.30  0.001831   -0.38    144.92   
    29. A(B   5,B   8,B   7)           68.73  0.001437   -0.27     68.47   
    30. A(B   3,B   8,B   7)          103.21 -0.001451    0.48    103.69   
    31. A(B   3,B   8,B   5)          146.76  0.002730    0.00    146.77   
    32. A(B   1,B   9,B   2)          125.80  0.000270    0.29    126.09   
    33. A(B   4,B  10,B   5)          118.28 -0.001377    1.86    120.14   
    34. A(B   0,B  11,B   1)           67.89  0.001404    0.09     67.98   
    35. D(B   9,B   1,B   0,B  11)   -125.11 -0.000435   -0.45   -125.56   
    36. D(B   8,B   3,B   2,B   9)    -19.03  0.000568    1.22    -17.81   
    37. D(B   8,B   5,B   4,B   6)     -4.09 -0.001205    0.52     -3.57   
    38. D(B  10,B   5,B   4,B   6)    174.42 -0.000423    0.78    175.19   
    39. D(B   8,B   5,B   4,B  10)   -178.51 -0.000782   -0.26   -178.77   
    40. D(B   4,B   6,B   1,B   9)    -65.87 -0.001712   -2.03    -67.90   
    41. D(B   4,B   6,B   0,B  11)     43.72  0.001227   -1.73     42.00   
    42. D(B   0,B   6,B   4,B  10)     19.22 -0.001164    0.23     19.44   
    43. D(B   0,B   6,B   4,B   5)     15.98 -0.001377    1.50     17.48   
    44. D(B   4,B   6,B   1,B  11)     61.23 -0.002943   -1.35     59.88   
    45. D(B   3,B   8,B   5,B  10)     49.45 -0.000794   -5.90     43.55   
    46. D(B   3,B   8,B   5,B   4)     61.00  0.000430   -1.51     59.49   
    47. D(B   7,B   8,B   3,B   2)     19.69 -0.000566    0.21     19.90   
    48. D(B   7,B   8,B   5,B   4)    -20.58  0.002616   -1.96    -22.54   
    49. D(B   5,B   8,B   3,B   2)    -51.56 -0.000257   -0.05    -51.61   
    50. D(B   7,B   8,B   5,B  10)    -32.13  0.001392   -6.35    -38.48   
    51. D(B   1,B   9,B   2,B   3)     -2.87  0.001055   -1.11     -3.98   
    52. D(B   2,B   9,B   1,B  11)    -21.34 -0.000448    0.25    -21.09   
    53. D(B   2,B   9,B   1,B   0)     62.50  0.001068    0.55     63.05   
    54. D(B   4,B  10,B   5,B   8)     12.81  0.000561    4.17     16.97   
    55. D(B   5,B  10,B   4,B   6)     -6.25 -0.000370    1.50     -4.74   
    56. D(B   0,B  11,B   1,B   9)    118.16  0.001241    0.09    118.26   
    57. D(B   1,B  11,B   0,B   6)   -167.18 -0.001324    0.22   -166.97   
    ----------------------------------------------------------------------------

Geometry step timings:
Preparation and reading OPT file:      0.000 s ( 1.297 %)
Internal coordinates            :      0.000 s ( 1.369 %)
B/P matrices and projection     :      0.001 s (18.991 %)
Hessian update/contruction      :      0.000 s (16.865 %)
Making the step                 :      0.001 s (36.577 %)
Converting the step to Cartesian:      0.000 s ( 2.523 %)
Storing new data                :      0.000 s ( 2.523 %)
Checking convergence            :      0.000 s ( 2.306 %)
Final printing                  :      0.000 s (17.514 %)
Total time                      :      0.003 s

Time for energy+gradient        :      0.065 s
Time for complete geometry iter :      0.069 s




    ----------------------------------------------------------------------------
                                  WARNING !!!
       The optimization did not converge but reached the maximum number of
       optimization cycles.
       Please check your results very carefully.
    ----------------------------------------------------------------------------



--------------------------------
SUGGESTED CITATIONS FOR THIS RUN
--------------------------------

Below you find a list of papers that are relevant to this ORCA run
We neither can nor want to force you to cite these papers, but we appreciate if you do
You receive ORCA, which is the product of decades of hard work by many enthusiastic individuals, for free
The only thing we kindly ask in return is that you cite our papers,
We deeply appreciate it, if you show your appreciation for ORCA by not just citing the generic ORCA reference.

Please note that relegating all ORCA citations to the supporting information does *not* help us.
SI sections are not indexed - citations you put there will not count into any citation statistics
But we need these citations in order to attract the funding resources that allow us to do what we are doing

Therefore, if you are a happy ORCA user, please consider citing a few of the papers listed below in the main body of your paper

In addition to the list printed below, the program has created the file random_d2.10_004_m1.bibtex that contains the list in bibtex format
You can import this file easily into all common literature databanks and citation aid programs

It goes without saying that in many instances, there are alternative algorithms to achieve similar
results as the ones you have gotten from ORCA. It is, of course, also the case that in some instances
ORCA just re-implements algorithms worked out by others. We are fully aware of that and we are also
fully appreciative of our colleagues work. Hence this citation list should not be read as indicating
that the listed papers, which are focused on our own work, are the only ones worth citing. It simply
meant to make it easier for users to cite ORCA specific papers. It is not a substitute for doing your
own literature research and citing the relevant literature in a scientifically appropriate manner.

List of essential papers. We consider these as the minimum necessary citations

  1. Bannwarth, C.; Ehlert, S.; Grimme, S.
     GFN2-xTB—An Accurate and Broadly Parametrized Self-Consistent Tight-Binding Quantum Chemical Method with Multipole Electrostatics and Density-Dependent Dispersion Contributions
     J. Chem. Theory Comput. 2019 15(3), 1652-1671
     doi.org/10.1021/acs.jctc.8b01176
  2. Neese, F.
     Software update: the ORCA program system, version 6.0
     WIRES Comput. Molec. Sci. 2025 15(1), e70019
     doi.org/10.1002/wcms.70019

List of papers to cite with high priority. The work reported in these papers was absolutely
necessary for this run to complete.
Our perspective: the developers of density functionals and basis sets usually get cited in chemistry papers
Good! But without the algorithms to do something with them, the functionals or basis sets would not do anything.
Hence, in our opinion, the algorithm design and method developments papers are equally worthy of getting cited

  1. Bannwarth, C.; Caldeweyher, E.; Ehlert, S.; Hansen, A.; Pracht, P.; Seibert, J.; Spicher, S.; Grimme, S.
     Extended tight-binding quantum chemistry methods
     WIRES Comput. Molec. Sci. 2020 11(2), e1493
     doi.org/10.1002/wcms.1493

List of suggested additional citations. These are papers that are important in the 'surrounding' of 
of this run, or papers that preceded the highly important papers. If you like your results we are grateful for a citation.

  1. Neese, F.
     The ORCA program system
     WIRES Comput. Molec. Sci. 2012 2(1), 73-78
     doi.org/10.1002/wcms.81
  2. Neese, F.
     Software update: the ORCA program system, version 4.0
     WIRES Comput. Molec. Sci. 2018 8(1), 1-6
     doi.org/10.1002/wcms.1327
  3. Neese, F.; Wennmohs, F.; Becker, U.; Riplinger, C.
     The ORCA quantum chemistry program package
     J. Chem. Phys. 2020 152(22), 224108
     doi.org/10.1063/5.0004608
  4. Neese, F.
     Software update: The ORCA program system—Version 5.0
     WIRES Comput. Molec. Sci. 2022 12(1), e1606
     doi.org/10.1002/wcms.1606

List of optional additional citations

  1. Neese, F.
     Approximate second-order SCF convergence for spin unrestricted wavefunctions
     Chem. Phys. Lett. 2000 325(1-3), 93-98
     doi.org/10.1016/s0009-2614(00)00662-x

Timings for individual modules:

Sum of individual times          ...        3.236 sec (=   0.054 min)
Geometry relaxation              ...        0.297 sec (=   0.005 min)   9.2 %
XTB module                       ...        2.939 sec (=   0.049 min)  90.8 %
                             ****ORCA TERMINATED NORMALLY****
TOTAL RUN TIME: 0 days 0 hours 0 minutes 3 seconds 734 msec
