
                                 *****************
                                 * O   R   C   A *
                                 *****************

                                            #,                                       
                                            ###                                      
                                            ####                                     
                                            #####                                    
                                            ######                                   
                                           ########,                                 
                                     ,,################,,,,,                         
                               ,,#################################,,                 
                          ,,##########################################,,             
                       ,#########################################, ''#####,          
                    ,#############################################,,   '####,        
                  ,##################################################,,,,####,       
                ,###########''''           ''''###############################       
              ,#####''   ,,,,##########,,,,          '''####'''          '####       
            ,##' ,,,,###########################,,,                        '##       
           ' ,,###''''                  '''############,,,                           
         ,,##''                                '''############,,,,        ,,,,,,###''
      ,#''                                            '''#######################'''  
     '                                                          ''''####''''         
             ,#######,   #######,   ,#######,      ##                                
            ,#'     '#,  ##    ##  ,#'     '#,    #''#        ,####,    ,#,          
            ##       ##  ##   ,#'  ##            #'  '#       #'       ,# #          
            ##       ##  #######   ##           ,######,      #####,      #          
            '#,     ,#'  ##    ##  '#,     ,#' ,#      #,     #,   #      #          
             '#######'   ##     ##  '#######'  #'      '#     '####' #    #          



                #########################################################
                #                        -***-                          #
                #          Department of theory and spectroscopy        #
                #                                                       #
                #                      Frank Neese                      #
                #                                                       #
                #     Directorship, Architecture, Infrastructure        #
                #                    SHARK, DRIVERS                     #
                #        Core code/Algorithms in most modules           #
                #                                                       #
                #        Max Planck Institute fuer Kohlenforschung      #
                #                Kaiser Wilhelm Platz 1                 #
                #                 D-45470 Muelheim/Ruhr                 #
                #                      Germany                          #
                #                                                       #
                #                  All rights reserved                  #
                #                        -***-                          #
                #########################################################


                         Program Version 6.1.1  -  RELEASE   -
                                (GIT: $487d211c$)
                          ($2025-11-21 10:33:24 +0100$)
                                                                         
                                  - NO-DMRG VERSION -                    
                                                                         


 With contributions from (in alphabetic order):
[Max-Planck-Institut fuer Kohlenforschung]                               
  Daniel Aravena         : Magnetic Suceptibility                        
  Michael Atanasov       : Ab Initio Ligand Field Theory (pilot matlab implementation)
  Alexander A. Auer      : GIAO ZORA, VPT2 properties, NMR spectrum      
  Ute Becker             : All parallelization in ORCA, NUMFREQ, NUMCALC 
  Giovanni Bistoni       : ED, misc. LED, open-shell LED, HFLD           
  Dmytro Bykov           : pre 5.0 version of the SCF Hessian            
  Marcos Casanova-Páez   : Triplet and SCS-CIS(D). UHF-(DLPNO)-IP/EA/STEOM-CCSD. UHF-CVS-IP/STEOM-CCSD   
  Vijay G. Chilkuri      : MRCI spin determinant printing, contributions to CSF-ICE 
  Pauline Colinet        : FMM embedding                                 
  Dipayan Datta          : RHF DLPNO-CCSD density                        
  Achintya Kumar Dutta   : EOM-CC, STEOM-CC                              
  Nicolas Foglia         : Exact transition moments, OPA infrastructure, MCD improvements    
  Dmitry Ganyushin       : Spin-Orbit,Spin-Spin,Magnetic field MRCI      
  Miquel Garcia-Rates    : C-PCM and meta-GGA Hessian, CCSD/C-PCM, Gaussian charge scheme 
  Tiago L. C. Gouveia    : GS-ROHF, GS-ROCIS                             
  Yang Guo               : DLPNO-NEVPT2, F12-NEVPT2, CIM, IAO-localization        
  Andreas Hansen         : Spin unrestricted coupled pair/coupled cluster methods 
  Ingolf Harden          : AUTO-CI MPn and infrastructure                
  Benjamin Helmich-Paris : MC-RPA, TRAH-(SCF,CASSCF), AVAS, COSX integrals, SCF dyn. polar., MC-PDFT, srDFT 
  Lee Huntington         : MR-EOM, pCC                                   
  Robert Izsak           : Overlap fitted RIJCOSX, COSX-SCS-MP3, EOM     
  Riya Kayal             : Wick's Theorem for AUTO-CI, AUTO-CI UHF-CCSDT 
  Emily Kempfer          : AUTO-CI RHF CISDT and CCSDT, approximate NEVPT4
  Christian Kollmar      : KDIIS, OOCD, Brueckner-CCSD(T), CCSD density, CASPT2, CASPT2-K, improved NEVPT2 
  Axel Koslowski         : Symmetry handling                             
  Simone Kossmann        : meta-GGA functionals, TD-DFT gradient, OOMP2, (MP2 Hessian; deprecated post 5.0) 
  Lucas Lang             : DCDCAS, Hyperfine gauge corrections, ICE-SOC+SSC
  Marvin Lechner         : AUTO-CI (C++ implementation), FIC-MRCC        
  Spencer Leger          : CASSCF response                               
  Dagmar Lenk            : GEPOL surface, SMD, ORCA-2-JSON               
  Dimitrios Liakos       : Extrapolation schemes; Compound Job, Property file
  Dimitrios Manganas     : Further ROCIS development; embedding schemes. LFT, Crystal Embedding 
  Dimitrios Pantazis     : SARC Basis sets                               
  Anastasios Papadopoulos: AUTO-CI, single reference methods and gradients 
  Taras Petrenko         : pre 6.0 DFT Hessian and TD-DFT gradient,  ECA, NRVS 
  Petra Pikulova         : Analytic Raman intensities                    
  Peter Pinski           : DLPNO-MP2, DLPNO-MP2 Gradient                 
  Shashank Vittal Rao    : ES-AILFT, MagRelax                            
  Christoph Reimann      : Effective Core Potentials                     
  Marius Retegan         : Local ZFS, SOC                                
  Christoph Riplinger    : Optimizer, TS searches, QM/MM, DLPNO-CCSD(T), (RO)-DLPNO pert. Triples 
  Michael Roemelt        : Original ROCIS implementation, recursive CI coupling coefficients
  Masaaki Saitow         : Open-shell DLPNO-CCSD energy and density      
  Barbara Sandhoefer     : DKH picture change effects                    
  Yorick L. A. Schmerwitz: GMF and freeze-and-release deltaSCF, NEB S-IDPP initial path                    
  Kantharuban Sivalingam : CASSCF convergence/infrastructure, NEVPT2, NEVPT3, NEVPT4(SD), FIC-MRCI and CEPA variants
  Bernardo de Souza      : ESD, SOC TD-DFT                               
  Georgi L. Stoychev     : AutoAux, RI-MP2 NMR, DLPNO-MP2 response, X2C  
  Van Anh Tran           : RI-MP2 g-tensors                              
  Willem Van den Heuvel  : Paramagnetic NMR                              
  Zikuan Wang            : NOTCH, Electric field optimization            
  Frank Wennmohs         : Technical directorship and infrastructure     
  Hang Xu                : AUTO-CI-Response properties                   
                                                                         
[FACCTs GmbH]                                                            
  Markus Bursch, Nicolas Foglia, Miquel Garcia-Rates, Ingolf Harden, Hagen Neugebauer, Anastasios Papadopoulos, 
  Christoph Riplinger, Bernardo de Souza, Georgi L. Stoychev                                                    
                                                                 
  APM, various basis sets, CI-OPT, improved COSX, DLPNO-Multilevel,           
  DOCKER, DRACO, updates on ESD, Fragmentator, GOAT, IRC, LR-CPCM, L-BFGS, MBIS, meta-GGA TD-DFT gradient, ML-optimized integration grids, 
  MM, NACMEs, nearIR, NEB, NEB-TS, NL-DFT gradient (VV10), 2- and 3-layer-ONIOM, interface openCOSMO-RS, QMMM,   
  Crystal-QMMM, RESP, rigid body optimization, SF, symmetry and pop. for TD-DFT, various functionals, SOLVATOR                                   
                                                                         
[Other institutions]                                                     
  V. Asgeirsson          : NEB                                           
  Christoph Bannwarth    : sTDA-DFT, sTD-DFT, PBEh-3c, B97-3c, D3        
  Giovanni Bistoni       : ETS/NOCV, ADLD/ADEX, COVALED                  
  Martin Brehm           : Molecular dynamics                            
  Ronald Cardenas        : ETS/NOCV                                      
  Martina Colucci        : COVALED                                       
  Sebastian Ehlert       : rSCAN, r2SCAN, r2SCAN-3c, D4, dhf basis sets  
  Marvin Friede          : D4 for Fr, Ra, Ac-Lr                          
  Lars Goerigk           : TD-DFT with DH, B97 family of functionals     
  Stefan Grimme          : VdW corrections, initial TS optimization, DFT functionals, gCP, sTDA/sTD-DF 
  Waldemar Hujo          : DFT-NL                                        
  H. Jonsson             : NEB                                           
  Holger Kruse           : gCP                                           
  Marcel Mueller         : wB97X-3c, vDZP basis set                      
  Hagen Neugebauer       : wr2SCAN, Native XTB                           
  Gianluca Regni         : ADLD/ADEX                                     
  Tobias Risthaus        : pre 6.0 range-separated hybrid DFT and stability analysis
  Lukas Wittmann         : regularized MP2, r2SCAN double-hybrids, wr2SCAN        
                                                                         
We gratefully acknowledge several colleagues who have allowed us to      
interface, adapt or use parts of their codes:                            
  Ed Valeev, F. Pavosevic, A. Kumar             : LibInt (2-el integral package), F12 methods 
  Garnet Chan, S. Sharma, J. Yang, R. Olivares  : DMRG                   
  Ulf Ekstrom                                   : XCFun DFT Library      
  Mihaly Kallay                                 : mrcc  (arbitrary order and MRCC methods)
  Frank Weinhold                                : gennbo (NPA and NBO analysis)           
  Simon Mueller                                 : openCOSMO-RS                            
  Christopher J. Cramer and Donald G. Truhlar   : smd solvation model                     
  S Lehtola, MJT Oliveira, MAL Marques          : LibXC Library                           
  Liviu Ungur et al                             : ANISO software                          


 Your calculation uses the libint2 library for the computation of 2-el integrals
 For citations please refer to: http://libint.valeyev.net

 Your ORCA version has been built with support for libXC version: 7.0.0
 For citations please refer to: https://libxc.gitlab.io

 This ORCA versions uses:
   CBLAS   interface :  Fast vector & matrix operations
   LAPACKE interface :  Fast linear algebra routines
   SCALAPACK package :  Parallel linear algebra routines
   Shared memory     :  Shared parallel matrices
   BLAS/LAPACK       :  OpenBLAS 0.3.29  USE64BITINT DYNAMIC_ARCH NO_AFFINITY Zen SINGLE_THREADED
        Core in use  :  Zen
   Copyright (c) 2011-2014, The OpenBLAS Project


  ***********************************
  * Starting time: Fri Apr 17 12:14:18 2026
  * Host name:     vmi3233575
  * Process ID:    334009
  * Working dir.:  /root/orca_b12_vps_pack/jobs/01_xtb/mult_1
  ***********************************

NOTE: MaxCore=500 MB was set to SCF,MP2,MDCI,CIPSI,MRCI,RASCI and CIS
      => If you want to overwrite this, your respective input block should be placed after the MaxCore statement


***************************************
The coordinates will be read from file: ../../../starts/random_d2.10_001.xyz
***************************************


Your calculation utilizes the semiempirical GFN2-xTB method
Please cite in your paper:
Bannwarth, C.; Ehlert S.; Grimme, S. J. Chem. Theory Comput. 2019, 15, 1652.
   

================================================================================

================================================================================
                                        WARNINGS
                       Please study these warnings very carefully!
================================================================================


WARNING: Geometry Optimization
  ===> : Switching off AutoStart
         For restart on a previous wavefunction, please use MOREAD

WARNING: Found dipole moment calculation with XTB calculation
  ===> : Switching off dipole moment calculation

Environment variable XTBEXE for xtb has been set!

================================================================================
                                       INPUT FILE
================================================================================
NAME = random_d2.10_001_m1.inp
|  1> ! GFN2-xTB TightSCF TightOpt
|  2> 
|  3> %pal
|  4>   nprocs 1
|  5> end
|  6> 
|  7> %maxcore 500
|  8> 
|  9> * xyzfile 0 1 ../../../starts/random_d2.10_001.xyz
| 10> 
| 11>                          ****END OF INPUT****
================================================================================

                       *****************************
                       * Geometry Optimization Run *
                       *****************************

Geometry optimization settings:
Update method            Update   .... BFGS
Choice of coordinates    CoordSys .... (2022) Redundant Internals
Initial Hessian          InHess   .... Almloef's Model
Max. no of cycles        MaxIter  .... 50

Convergence Tolerances:
Energy Change            TolE     ....  1.0000e-06 Eh
Max. Gradient            TolMAXG  ....  1.0000e-04 Eh/bohr
RMS Gradient             TolRMSG  ....  3.0000e-05 Eh/bohr
Max. Displacement        TolMAXD  ....  1.0000e-03 bohr
RMS Displacement         TolRMSD  ....  6.0000e-04 bohr
Strict Convergence                .... False

------------------------------------------------------------------------------
                        ORCA OPTIMIZATION COORDINATE SETUP
------------------------------------------------------------------------------

The optimization will be done in redundant internal coordinates (2022)
Making redundant internal coordinates   ...  (2022 redundants) done
Evaluating the initial hessian          ...  (Almloef) done
Evaluating the coordinates              ...  done
Calculating the B-matrix                .... done
Calculating the G-matrix                .... done
The number of degrees of freedom        ....  115

    -----------------------------------------------------------------
                    Redundant Internal Coordinates


    -----------------------------------------------------------------
         Definition                    Initial Value    Approx d2E/dq
    -----------------------------------------------------------------
      1. B(B   2,B   0)                  2.9937         0.010000   
      2. B(B   4,B   3)                  2.2636         0.033851   
      3. B(B   5,B   0)                  2.0372         0.077772   
      4. B(B   5,B   2)                  3.4826         0.010000   
      5. B(B   6,B   2)                  3.3927         0.010000   
      6. B(B   6,B   3)                  2.0942         0.063066   
      7. B(B   7,B   5)                  1.8606         0.148788   
      8. B(B   7,B   4)                  2.6063         0.010000   
      9. B(B   9,B   8)                  1.9558         0.104869   
     10. B(B   9,B   7)                  1.8029         0.183921   
     11. B(B   9,B   1)                  1.9328         0.114138   
     12. B(B  10,B   8)                  1.9872         0.093444   
     13. B(B  10,B   9)                  2.0788         0.066748   
     14. B(B  11,B   2)                  3.2330         0.010000   
     15. B(B  11,B   7)                  1.7395         0.232183   
     16. B(B  11,B   6)                  1.4086         0.782922   
     17. B(B  11,B   5)                  1.4197         0.751553   
     18. A(B   2,B   0,B   5)           85.3724         0.152512   
     19. A(B   0,B   2,B  11)           44.4637         0.112499   
     20. A(B   0,B   2,B   5)           35.6660         0.108095   
     21. A(B   5,B   2,B   6)           48.3147         0.102703   
     22. A(B   5,B   2,B  11)           24.0406         0.104650   
     23. A(B   6,B   2,B  11)           24.3952         0.105864   
     24. A(B   0,B   2,B   6)           62.8742         0.109576   
     25. A(B   4,B   3,B   6)          131.6564         0.200145   
     26. A(B   3,B   4,B   7)           57.0684         0.161609   
     27. A(B   2,B   5,B   7)          121.7023         0.137988   
     28. A(B   0,B   5,B  11)           84.3810         0.324090   
     29. A(B   2,B   5,B  11)           68.0789         0.159679   
     30. A(B   0,B   5,B   7)          137.7399         0.251941   
     31. A(B   0,B   5,B   2)           58.9616         0.131298   
     32. A(B   7,B   5,B  11)           62.3501         0.361272   
     33. A(B   2,B   6,B   3)          143.5498         0.132467   
     34. A(B   3,B   6,B  11)           77.5958         0.315282   
     35. A(B   2,B   6,B  11)           71.4385         0.165870   
     36. A(B   5,B   7,B  11)           46.3006         0.297709   
     37. A(B   4,B   7,B  11)          119.1948         0.201271   
     38. A(B   4,B   7,B   9)          116.0644         0.195503   
     39. A(B   4,B   7,B   5)          142.8023         0.190513   
     40. A(B   5,B   7,B   9)           97.2482         0.286987   
     41. A(B   9,B   7,B  11)          119.2522         0.307967   
     42. A(B   9,B   8,B  10)           63.6281         0.245924   
     43. A(B   1,B   9,B  10)          148.9841         0.237233   
     44. A(B   1,B   9,B   7)           71.8696         0.275456   
     45. A(B   7,B   9,B   8)          134.6363         0.271916   
     46. A(B   8,B   9,B  10)           58.9214         0.234418   
     47. A(B   7,B   9,B  10)          100.8988         0.254136   
     48. A(B   1,B   9,B   8)          145.9869         0.253192   
     49. A(B   8,B  10,B   9)           57.4505         0.230671   
     50. A(B   5,B  11,B   6)          168.8273         0.485484   
     51. A(B   2,B  11,B   7)          142.4940         0.155674   
     52. A(B   2,B  11,B   6)           84.1663         0.176789   
     53. A(B   2,B  11,B   5)           87.8805         0.175980   
     54. A(B   6,B  11,B   7)          110.9234         0.392924   
     55. A(B   5,B  11,B   7)           71.3493         0.390124   
     56. D(B   6,B   2,B   0,B   5)     55.4073         0.010000   
     57. D(B  11,B   2,B   0,B   5)     35.2724         0.010000   
     58. D(B   7,B   4,B   3,B   6)     36.7447         0.010000   
     59. D(B  11,B   5,B   0,B   2)    -67.7522         0.010000   
     60. D(B   7,B   5,B   2,B   0)    130.0581         0.010000   
     61. D(B   7,B   5,B   2,B  11)     33.2244         0.010000   
     62. D(B   0,B   5,B   2,B   6)   -101.1699         0.010000   
     63. D(B   7,B   5,B   0,B   2)   -104.4619         0.010000   
     64. D(B   7,B   5,B   2,B   6)     28.8882         0.010000   
     65. D(B   0,B   5,B   2,B  11)    -96.8337         0.010000   
     66. D(B  11,B   5,B   2,B   0)     96.8337         0.010000   
     67. D(B  11,B   6,B   2,B   0)    -35.7171         0.010000   
     68. D(B   3,B   6,B   2,B   5)     37.5557         0.010000   
     69. D(B   3,B   6,B   2,B  11)     33.2789         0.010000   
     70. D(B   3,B   6,B   2,B   0)     -2.4382         0.010000   
     71. D(B   2,B   6,B   3,B   4)   -104.9730         0.010000   
     72. D(B  11,B   6,B   3,B   4)    -72.7914         0.010000   
     73. D(B  11,B   6,B   2,B   5)      4.2768         0.010000   
     74. D(B   4,B   7,B   5,B   0)    -39.5845         0.010000   
     75. D(B   9,B   7,B   5,B   2)     89.0240         0.010000   
     76. D(B   9,B   7,B   5,B  11)    124.0421         0.010000   
     77. D(B   9,B   7,B   5,B   0)    166.2316         0.010000   
     78. D(B  11,B   7,B   5,B   2)    -35.0182         0.010000   
     79. D(B  11,B   7,B   4,B   3)      3.4106         0.010000   
     80. D(B   9,B   7,B   4,B   3)   -150.2835         0.010000   
     81. D(B   5,B   7,B   4,B   3)     58.4614         0.010000   
     82. D(B  11,B   7,B   5,B   0)     42.1894         0.010000   
     83. D(B   8,B   9,B   7,B   5)     62.3237         0.010000   
     84. D(B   1,B   9,B   7,B   4)     53.8464         0.010000   
     85. D(B   1,B   9,B   7,B   5)   -143.1963         0.010000   
     86. D(B   1,B   9,B   7,B  11)    -99.8318         0.010000   
     87. D(B   7,B   9,B   8,B  10)    -73.4482         0.010000   
     88. D(B   1,B   9,B   8,B  10)    153.6014         0.010000   
     89. D(B   8,B   9,B   7,B   4)   -100.6336         0.010000   
     90. D(B   8,B   9,B   7,B  11)    105.6882         0.010000   
     91. D(B   8,B  10,B   9,B   7)    136.0027         0.010000   
     92. D(B   8,B  10,B   9,B   1)   -151.1400         0.010000   
     93. D(B   2,B  11,B   7,B   5)     59.7428         0.010000   
     94. D(B   6,B  11,B   7,B   9)     97.9553         0.010000   
     95. D(B   6,B  11,B   7,B   5)    168.3711         0.010000   
     96. D(B   5,B  11,B   7,B   4)    136.7315         0.010000   
     97. D(B   2,B  11,B   6,B   3)   -160.5007         0.031557   
     98. D(B   7,B  11,B   6,B   2)   -144.5529         0.031557   
     99. D(B   7,B  11,B   6,B   3)     54.9465         0.031557   
    100. D(B   5,B  11,B   6,B   2)    -44.8341         0.031557   
    101. D(B   5,B  11,B   6,B   3)    154.6652         0.031557   
    102. D(B   2,B  11,B   5,B   0)     58.7423         0.031100   
    103. D(B   7,B  11,B   5,B   2)    148.2467         0.031100   
    104. D(B   7,B  11,B   5,B   0)   -153.0110         0.031100   
    105. D(B   6,B  11,B   5,B   2)     44.5785         0.031100   
    106. D(B   6,B  11,B   5,B   7)   -103.6682         0.031100   
    107. D(B   6,B  11,B   5,B   0)    103.3208         0.031100   
    108. D(B   7,B  11,B   2,B   6)    117.1604         0.010000   
    109. D(B   5,B  11,B   7,B   9)    -70.4159         0.010000   
    110. D(B   7,B  11,B   2,B   0)   -110.7212         0.010000   
    111. D(B   6,B  11,B   2,B   5)   -172.1425         0.010000   
    112. D(B   6,B  11,B   2,B   0)    132.1184         0.010000   
    113. D(B   6,B  11,B   7,B   4)    -54.8974         0.010000   
    114. D(B   5,B  11,B   2,B   6)    172.1425         0.010000   
    115. D(B   5,B  11,B   2,B   0)    -55.7392         0.010000   
    -----------------------------------------------------------------

Number of atoms                         .... 12
Number of degrees of freedom            .... 115


         *************************************************************
         *                GEOMETRY OPTIMIZATION CYCLE   1            *
         *************************************************************
---------------------------------
CARTESIAN COORDINATES (ANGSTROEM)
---------------------------------
  B    -2.478993   -0.927519    1.537470
  B     2.317557    0.491836   -0.876753
  B    -1.476757   -3.540659    0.474777
  B     1.101104    0.635629    2.274850
  B     1.823040    2.553215    1.312747
  B    -1.279797   -0.081326    0.124662
  B     0.848717   -1.296973    1.508550
  B     0.355794    0.803030    0.057043
  B    -0.371812    1.387485   -3.283554
  B     0.594828    0.703091   -1.727135
  B    -1.213902   -0.132753   -2.319812
  B    -0.219780   -0.595057    0.917155

----------------------------
CARTESIAN COORDINATES (A.U.)
----------------------------
  NO LB    ZA    FRAG    MASS        X           Y           Z
   0 B   5.0000    0    10.810   -4.684618   -1.752757    2.905398
   1 B   5.0000    0    10.810    4.379549    0.929435   -1.656823
   2 B   5.0000    0    10.810   -2.790666   -6.690876    0.897199
   3 B   5.0000    0    10.810    2.080785    1.201165    4.298843
   4 B   5.0000    0    10.810    3.445047    4.824877    2.480732
   5 B   5.0000    0    10.810   -2.418466   -0.153684    0.235578
   6 B   5.0000    0    10.810    1.603842   -2.450923    2.850746
   7 B   5.0000    0    10.810    0.672353    1.517507    0.107795
   8 B   5.0000    0    10.810   -0.702622    2.621966   -6.205018
   9 B   5.0000    0    10.810    1.124063    1.328650   -3.263813
  10 B   5.0000    0    10.810   -2.293942   -0.250866   -4.383809
  11 B   5.0000    0    10.810   -0.415324   -1.124494    1.733171

      -----------------------------------------------------------      
     |                   =====================                   |     
     |                           x T B                           |     
     |                   =====================                   |     
     |                         S. Grimme                         |     
     |          Mulliken Center for Theoretical Chemistry        |     
     |                    University of Bonn                     |     
      -----------------------------------------------------------      

   * xtb version 6.6.1 (unknown) compiled by 'builduser@buildhost' on 2023-08-07

   xtb is free software: you can redistribute it and/or modify it under
   the terms of the GNU Lesser General Public License as published by
   the Free Software Foundation, either version 3 of the License, or
   (at your option) any later version.
   
   xtb is distributed in the hope that it will be useful,
   but WITHOUT ANY WARRANTY; without even the implied warranty of
   MERCHANTABILITY or FITNESS FOR A PARTICULAR PURPOSE.  See the
   GNU Lesser General Public License for more details.
   
   Cite this work as:
   * C. Bannwarth, E. Caldeweyher, S. Ehlert, A. Hansen, P. Pracht,
     J. Seibert, S. Spicher, S. Grimme, WIREs Comput. Mol. Sci., 2020, 11,
     e01493. DOI: 10.1002/wcms.1493
   
   for GFN2-xTB:
   * C. Bannwarth, S. Ehlert and S. Grimme., J. Chem. Theory Comput., 2019,
     15, 1652-1671. DOI: 10.1021/acs.jctc.8b01176
   for GFN1-xTB:
   * S. Grimme, C. Bannwarth, P. Shushkov, J. Chem. Theory Comput., 2017,
     13, 1989-2009. DOI: 10.1021/acs.jctc.7b00118
   for GFN0-xTB:
   * P. Pracht, E. Caldeweyher, S. Ehlert, S. Grimme, ChemRxiv, 2019, preprint.
     DOI: 10.26434/chemrxiv.8326202.v1
   for GFN-FF:
   * S. Spicher and S. Grimme, Angew. Chem. Int. Ed., 2020, 59, 15665-15673.
     DOI: 10.1002/anie.202004239
   
   for ALPB and GBSA implicit solvation:
   * S. Ehlert, M. Stahn, S. Spicher, S. Grimme, J. Chem. Theory Comput.,
     2021, 17, 4250-4261. DOI: 10.1021/acs.jctc.1c00471
   
   for DFT-D4:
   * E. Caldeweyher, C. Bannwarth and S. Grimme, J. Chem. Phys., 2017,
     147, 034112. DOI: 10.1063/1.4993215
   * E. Caldeweyher, S. Ehlert, A. Hansen, H. Neugebauer, S. Spicher,
     C. Bannwarth and S. Grimme, J. Chem. Phys., 2019, 150, 154122.
     DOI: 10.1063/1.5090222
   * E. Caldeweyher, J.-M. Mewes, S. Ehlert and S. Grimme, Phys. Chem. Chem. Phys.
     2020, 22, 8499-8512. DOI: 10.1039/D0CP00502A
   
   for sTDA-xTB:
   * S. Grimme and C. Bannwarth, J. Chem. Phys., 2016, 145, 054103.
     DOI: 10.1063/1.4959605
   
   in the mass-spec context:
   * V. Asgeirsson, C. Bauer and S. Grimme, Chem. Sci., 2017, 8, 4879.
     DOI: 10.1039/c7sc00601b
   * J. Koopman and S. Grimme, ACS Omega 2019, 4, 12, 15120-15133.
     DOI: 10.1021/acsomega.9b02011
   
   for metadynamics refer to:
   * S. Grimme, J. Chem. Theory Comput., 2019, 155, 2847-2862
     DOI: 10.1021/acs.jctc.9b00143
   
   for SPH calculations refer to:
   * S. Spicher and S. Grimme, J. Chem. Theory Comput., 2021, 17, 1701-1714
     DOI: 10.1021/acs.jctc.0c01306
   
   with help from (in alphabetical order)
   P. Atkinson, C. Bannwarth, F. Bohle, G. Brandenburg, E. Caldeweyher
   M. Checinski, S. Dohm, S. Ehlert, S. Ehrlich, I. Gerasimov, C. Hölzer
   A. Katbashev, J. Koopman, C. Lavigne, S. Lehtola, F. März, M. Müller,
   F. Musil, H. Neugebauer, J. Pisarek, C. Plett, P. Pracht, F. Pultar,
   J. Seibert, P. Shushkov, S. Spicher, M. Stahn, M. Steiner, T. Strunk,
   J. Stückrath, T. Rose, and J. Unsleber
   
 * started run on 2026/04/17 at 12:14:18.952     

           -------------------------------------------------
          |                Calculation Setup                |
           -------------------------------------------------

          program call               : /usr/bin/xtb random_d2.10_001_m1_XTB.xyz --grad -c 0 -u 0 -P 1 --namespace random_d2.10_001_m1 --input random_d2.10_001_m1_XTB.input.tmp --acc 0.200000
          calculation namespace      : random_d2.10_001_m1
          coordinate file            : random_d2.10_001_m1_XTB.xyz
          omp threads                :                     1

   ID    Z sym.   atoms
    1    5 B      1-12

molecular fragmentation (1/2 indicates fragments):
112221211122
# atoms in fragment 1/2:     6     6
 fragment masses (1/2) :       64.87       64.87
CMA distance (Bohr)    :   3.071
constraining FC (au)   :  0.0500

           -------------------------------------------------
          |                 G F N 2 - x T B                 |
           -------------------------------------------------

        Reference                      10.1021/acs.jctc.8b01176
      * Hamiltonian:
        H0-scaling (s, p, d)           1.850000    2.230000    2.230000
        zeta-weighting                 0.500000
      * Dispersion:
        s8                             2.700000
        a1                             0.520000
        a2                             5.000000
        s9                             5.000000
      * Repulsion:
        kExp                           1.500000    1.000000
        rExp                           1.000000
      * Coulomb:
        alpha                          2.000000
        third order                    shell-resolved
        anisotropic                    true
        a3                             3.000000
        a5                             4.000000
        cn-shift                       1.200000
        cn-exp                         4.000000
        max-rad                        5.000000


          ...................................................
          :                      SETUP                      :
          :.................................................:
          :  # basis functions                  48          :
          :  # atomic orbitals                  48          :
          :  # shells                           24          :
          :  # electrons                        36          :
          :  max. iterations                   250          :
          :  Hamiltonian                  GFN2-xTB          :
          :  restarted?                      false          :
          :  GBSA solvation                  false          :
          :  PC potential                    false          :
          :  electronic temp.          300.0000000     K    :
          :  accuracy                    0.2000000          :
          :  -> integral cutoff          0.3198970E+02      :
          :  -> integral neglect         0.2000000E-08      :
          :  -> SCF convergence          0.2000000E-06 Eh   :
          :  -> wf. convergence          0.2000000E-04 e    :
          :  Broyden damping             0.4000000          :
          ...................................................

 iter      E             dE          RMSdq      gap      omega  full diag
   1    -12.5767888 -0.125768E+02  0.193E+01    0.19       0.0  T
   2     -1.5584377  0.110184E+02  0.210E+01    0.43       1.0  T
   3     17.8021252  0.193606E+02  0.287E+01    0.38       1.0  T
   4      1.1510720 -0.166511E+02  0.210E+01    0.06       1.0  T
   5     -7.6577791 -0.880885E+01  0.155E+01    0.34       1.0  T
   6     -2.2815142  0.537626E+01  0.176E+01    0.16       1.0  T
   7     -7.6281484 -0.534663E+01  0.138E+01    0.27       1.0  T
   8    -10.2044602 -0.257631E+01  0.111E+01    0.18       1.0  T
   9    -10.8550614 -0.650601E+00  0.103E+01    0.28       1.0  T
  10    -11.7885406 -0.933479E+00  0.897E+00    0.11       1.0  T
  11    -11.7864243  0.211626E-02  0.941E+00    0.21       1.0  T
  12    -11.4824152  0.304009E+00  0.995E+00    0.31       1.0  T
  13    -11.4228408  0.595744E-01  0.100E+01    0.33       1.0  T
  14    -11.3658346  0.570062E-01  0.993E+00    0.35       1.0  T
  15    -12.2099504 -0.844116E+00  0.763E+00    0.18       1.0  T
  16    -12.8643350 -0.654385E+00  0.710E+00    0.07       1.0  T
  17    -13.0492555 -0.184920E+00  0.617E+00    0.17       1.0  T
  18    -13.0573089 -0.805345E-02  0.601E+00    0.16       1.0  T
  19    -13.0448521  0.124568E-01  0.604E+00    0.14       1.0  T
  20    -13.0377369  0.711519E-02  0.609E+00    0.15       1.0  T
  21    -12.9007474  0.136990E+00  0.537E+00    0.14       1.0  T
  22    -12.7922855  0.108462E+00  0.544E+00    0.10       1.0  T
  23    -12.6255838  0.166702E+00  0.600E+00    0.12       1.0  T
  24    -12.5340751  0.915086E-01  0.616E+00    0.13       1.0  T
  25    -12.8499841 -0.315909E+00  0.460E+00    0.12       1.0  T
  26    -12.8533690 -0.338489E-02  0.443E+00    0.12       1.0  T
  27    -13.1819596 -0.328591E+00  0.309E+00    0.13       1.0  T
  28    -13.2034108 -0.214512E-01  0.233E+00    0.09       1.0  T
  29    -13.2453173 -0.419065E-01  0.229E+00    0.11       1.0  T
  30    -13.2597724 -0.144551E-01  0.199E+00    0.11       1.0  T
  31    -13.2527478  0.702458E-02  0.183E+00    0.10       1.0  T
  32    -13.2498147  0.293309E-02  0.182E+00    0.09       1.0  T
  33    -13.2806904 -0.308757E-01  0.134E+00    0.10       1.0  T
  34    -13.2942278 -0.135374E-01  0.121E+00    0.12       1.0  T
  35    -13.2951149 -0.887083E-03  0.106E+00    0.11       1.0  T
  36    -13.2999959 -0.488106E-02  0.778E-01    0.10       1.0  T
  37    -13.2993946  0.601316E-03  0.786E-01    0.10       1.0  T
  38    -13.3026325 -0.323793E-02  0.615E-01    0.11       1.0  T
  39    -13.3027327 -0.100188E-03  0.600E-01    0.11       1.0  T
  40    -13.3016027  0.112998E-02  0.610E-01    0.11       1.0  T
  41    -13.3043201 -0.271737E-02  0.391E-01    0.12       1.0  T
  42    -13.3045486 -0.228473E-03  0.365E-01    0.12       1.0  T
  43    -13.3045303  0.182809E-04  0.320E-01    0.12       1.0  T
  44    -13.3043079  0.222433E-03  0.318E-01    0.13       1.0  T
  45    -13.3045907 -0.282837E-03  0.252E-01    0.12       1.0  T
  46    -13.3045729  0.177629E-04  0.225E-01    0.12       1.0  T
  47    -13.3047430 -0.170110E-03  0.164E-01    0.12       1.0  T
  48    -13.3049871 -0.244006E-03  0.892E-02    0.12       1.0  T
  49    -13.3050455 -0.584388E-04  0.559E-02    0.12       1.0  T
  50    -13.3050500 -0.447088E-05  0.369E-02    0.12       1.0  T
  51    -13.3050428  0.721050E-05  0.388E-02    0.12       1.0  T
  52    -13.3050609 -0.181384E-04  0.155E-02    0.12       1.9  T
  53    -13.3050614 -0.516394E-06  0.141E-02    0.12       2.0  T
  54    -13.3050614  0.708377E-08  0.121E-02    0.12       2.4  T
  55    -13.3050620 -0.561223E-06  0.717E-03    0.12       4.0  T
  56    -13.3050621 -0.172064E-06  0.379E-03    0.12       7.6  T
  57    -13.3050622 -0.714128E-07  0.266E-03    0.12      10.9  T
  58    -13.3050622 -0.253226E-07  0.227E-03    0.12      12.7  T
  59    -13.3050623 -0.203306E-07  0.177E-03    0.12      16.3  T
  60    -13.3050623 -0.241042E-07  0.713E-04    0.12      40.5  T
  61    -13.3050623  0.613517E-08  0.985E-04    0.12      29.3  T
  62    -13.3050623 -0.623152E-08  0.666E-04    0.12      43.4  T
  63    -13.3050623 -0.198764E-08  0.453E-04    0.12      63.7  T
  64    -13.3050623 -0.739137E-09  0.334E-04    0.12      86.5  T
  65    -13.3050623 -0.980869E-09  0.161E-04    0.12     179.8  T
  66    -13.3050623 -0.289445E-09  0.445E-05    0.12     648.0  T

   *** convergence criteria satisfied after 66 iterations ***

         #    Occupation            Energy/Eh            Energy/eV
      -------------------------------------------------------------
         1        2.0000           -0.4374808             -11.9045
       ...           ...                  ...                  ...
        12        2.0000           -0.2811253              -7.6498
        13        2.0000           -0.2722966              -7.4096
        14        2.0000           -0.2701808              -7.3520
        15        2.0000           -0.2605541              -7.0900
        16        2.0000           -0.2584238              -7.0321
        17        1.9999           -0.2572729              -7.0008
        18        1.8290           -0.2497669              -6.7965 (HOMO)
        19        0.1710           -0.2452636              -6.6740 (LUMO)
        20        0.0001           -0.2375597              -6.4643
        21        0.0000           -0.2346454              -6.3850
        22        0.0000           -0.2331358              -6.3439
        23        0.0000           -0.2318739              -6.3096
       ...           ...                  ...                  ...
        48                          1.5781829              42.9445
      -------------------------------------------------------------
                  HL-Gap            0.0045033 Eh            0.1225 eV
             Fermi-level           -0.2475152 Eh           -6.7352 eV

 SCC (total)                   0 d,  0 h,  0 min,  0.066 sec
 SCC setup                      ...        0 min,  0.000 sec (  0.177%)
 Dispersion                     ...        0 min,  0.000 sec (  0.131%)
 classical contributions        ...        0 min,  0.000 sec (  0.047%)
 integral evaluation            ...        0 min,  0.002 sec (  3.099%)
 iterations                     ...        0 min,  0.059 sec ( 89.473%)
 molecular gradient             ...        0 min,  0.004 sec (  6.701%)
 printout                       ...        0 min,  0.000 sec (  0.346%)

         :::::::::::::::::::::::::::::::::::::::::::::::::::::
         ::                     SUMMARY                     ::
         :::::::::::::::::::::::::::::::::::::::::::::::::::::
         :: total energy             -13.196609442850 Eh    ::
         :: gradient norm              0.294720734379 Eh/a0 ::
         :: HOMO-LUMO gap              0.122540072917 eV    ::
         ::.................................................::
         :: SCC energy               -13.305062280506 Eh    ::
         :: -> isotropic ES            0.053765486224 Eh    ::
         :: -> anisotropic ES         -0.000727548214 Eh    ::
         :: -> anisotropic XC         -0.029652790772 Eh    ::
         :: -> dispersion             -0.017842777201 Eh    ::
         :: repulsion energy           0.108342337952 Eh    ::
         :: add. restraining           0.000000000000 Eh    ::
         :: total charge               0.000000000000 e     ::
         :::::::::::::::::::::::::::::::::::::::::::::::::::::


Property printout bound to 'properties.out'

           -------------------------------------------------
          | TOTAL ENERGY              -13.196609442850 Eh   |
          | GRADIENT NORM               0.294720734379 Eh/α |
          | HOMO-LUMO GAP               0.122540072917 eV   |
           -------------------------------------------------

------------------------------------------------------------------------
 * finished run on 2026/04/17 at 12:14:19.028     
------------------------------------------------------------------------
 total:
 * wall-time:     0 d,  0 h,  0 min,  0.076 sec
 *  cpu-time:     0 d,  0 h,  0 min,  0.076 sec
 * ratio c/w:     0.999 speedup
 SCF:
 * wall-time:     0 d,  0 h,  0 min,  0.066 sec
 *  cpu-time:     0 d,  0 h,  0 min,  0.066 sec
 * ratio c/w:     1.000 speedup


-------------------------   --------------------
FINAL SINGLE POINT ENERGY       -13.196609442850
-------------------------   --------------------


-------------
DIPOLE MOMENT
-------------
                                X             Y             Z
Total Dipole Moment    :     -0.49600      -0.57300       0.25800
                        -----------------------------------------
Magnitude (a.u.)       :      0.80057
Magnitude (Debye)      :      2.03488


------------------
CARTESIAN GRADIENT
------------------

   1   B   :   -0.048810202    0.002481775    0.062923104
   2   B   :    0.079743678   -0.018869601    0.006275703
   3   B   :    0.010210338   -0.031311978   -0.015016523
   4   B   :   -0.011536505    0.006158118    0.076896160
   5   B   :    0.026562164    0.072309594   -0.016208583
   6   B   :    0.122161320   -0.035173178    0.072511213
   7   B   :   -0.085806903   -0.020462978   -0.072104476
   8   B   :   -0.013989667    0.017735691    0.014999626
   9   B   :    0.002412724    0.085526560   -0.088993321
  10   B   :   -0.009982947   -0.014448860    0.004413677
  11   B   :   -0.046547683   -0.073841630   -0.015545632
  12   B   :   -0.024416316    0.009896485   -0.030150948

Difference to translation invariance:
           :    0.0000000000    0.0000000000    0.0000000000

Difference to rotation invariance:
           :   -0.0000000504   -0.0000000059   -0.0000000253

Norm of the Cartesian gradient     ...    0.2947207344
RMS gradient                       ...    0.0491201224
MAX gradient                       ...    0.1221613197
------------------------------------------------------------------------------
                         ORCA GEOMETRY RELAXATION STEP
------------------------------------------------------------------------------

Reading the OPT-File                    .... done
Getting information on internals        .... done
Copying old internal coords+grads       .... done
Making the new internal coordinates     .... (2022 redundants) done
Validating the new internal coordinates .... (2022 redundants) done
Calculating the B-matrix                .... done
Calculating the G,G- and P matrices     .... done
Transforming gradient to internals      .... done
Projecting the internal gradient        .... done
Number of atoms                         ....  12
Number of internal coordinates          .... 115
Current Energy                          ....   -13.196609443 Eh
Current gradient norm                   ....     0.294720734 Eh/bohr
Maximum allowed component of the step   ....  0.300
Current trust radius                    ....  0.300
Evaluating the initial hessian          ....  (Almloef) done
Projecting the Hessian                  .... done
Forming the augmented Hessian           .... done
Diagonalizing the augmented Hessian     .... done
Last element of RFO vector              ....  0.776009795
Lowest eigenvalues of augmented Hessian:
 -0.195392208  0.010097916  0.012794985  0.013348164  0.019515785
Length of the computed step             ....  0.812774349
Warning: the length of the step is outside the trust region - taking restricted step instead
The input lambda is                     ....     0.009000
   iter:   5  x=   -0.020234  g=  980.004981 f(x)=    15.022052
   iter:  10  x=   -0.427202  g=    2.046051 f(x)=     0.294569
   iter:  15  x=   -0.696841  g=    0.220695 f(x)=     0.000001
The output lambda is                    ....    -0.696841 (17 iterations)
The final length of the internal step   ....  0.300000000
Converting the step to Cartesian space:
 Initial RMS(Int)=    0.0279751442
Transforming coordinates:
 Iter   0:  RMS(Cart)=    0.0809487330 RMS(Int)=    0.0276652770
 Iter   5:  RMS(Cart)=    0.0000000429 RMS(Int)=    0.0000000294
done
Storing new coordinates                 .... done

                                .--------------------.
          ----------------------|Geometry convergence|-------------------------
          Item                value                   Tolerance       Converged
          ---------------------------------------------------------------------
          RMS gradient        0.0234595499            0.0000300000      NO
          MAX gradient        0.0974722271            0.0001000000      NO
          RMS step            0.0279751442            0.0006000000      NO
          MAX step            0.1106680629            0.0010000000      NO
          -------------------------------------------------------------------------
          ........................................................
          Max(Bonds)      0.0586      Max(Angles)    2.52
          Max(Dihed)        3.21      Max(Improp)    0.00
          ---------------------------------------------------------------------

The optimization has not yet converged - more geometry cycles are needed


    ---------------------------------------------------------------------------
                         Redundant Internal Coordinates
                            (Angstroem and degrees)

        Definition                    Value    dE/dq     Step     New-Value
    ----------------------------------------------------------------------------
     1. B(B   2,B   0)                2.9937  0.015438 -0.0141    2.9796   
     2. B(B   4,B   3)                2.2636  0.053045 -0.0384    2.2252   
     3. B(B   5,B   0)                2.0372  0.052431 -0.0372    2.0000   
     4. B(B   5,B   2)                3.4826 -0.000591 -0.0010    3.4816   
     5. B(B   6,B   2)                3.3927 -0.009144  0.0038    3.3966   
     6. B(B   6,B   3)                2.0942  0.061287 -0.0428    2.0515   
     7. B(B   7,B   5)                1.8606 -0.004177  0.0001    1.8607   
     8. B(B   7,B   4)                2.6063  0.029129 -0.0230    2.5833   
     9. B(B   9,B   8)                1.9558  0.071952 -0.0472    1.9086   
    10. B(B   9,B   7)                1.8029  0.097472 -0.0586    1.7443   
    11. B(B   9,B   1)                1.9328  0.075902 -0.0495    1.8832   
    12. B(B  10,B   8)                1.9872  0.055267 -0.0374    1.9498   
    13. B(B  10,B   9)                2.0788  0.047761 -0.0330    2.0458   
    14. B(B  11,B   2)                3.2330  0.012652 -0.0068    3.2262   
    15. B(B  11,B   7)                1.7395  0.021360 -0.0145    1.7250   
    16. B(B  11,B   6)                1.4086 -0.058055  0.0240    1.4326   
    17. B(B  11,B   5)                1.4197 -0.057731  0.0286    1.4483   
    18. A(B   2,B   0,B   5)           85.37 -0.012177    0.97     86.34   
    19. A(B   0,B   2,B  11)           44.46  0.001807   -0.22     44.24   
    20. A(B   0,B   2,B   5)           35.67  0.009131   -0.68     34.98   
    21. A(B   5,B   2,B   6)           48.31 -0.018631    0.93     49.24   
    22. A(B   5,B   2,B  11)           24.04 -0.009496    0.52     24.56   
    23. A(B   6,B   2,B  11)           24.40 -0.009285    0.42     24.81   
    24. A(B   0,B   2,B   6)           62.87 -0.010488    0.43     63.31   
    25. A(B   4,B   3,B   6)          131.66 -0.014335    1.20    132.85   
    26. A(B   3,B   4,B   7)           57.07 -0.007155    0.23     57.30   
    27. A(B   2,B   5,B   7)          121.70  0.017218   -0.94    120.76   
    28. A(B   0,B   5,B  11)           84.38  0.003407   -0.15     84.23   
    29. A(B   2,B   5,B  11)           68.08  0.005717   -0.28     67.80   
    30. A(B   0,B   5,B   7)          137.74  0.015156   -0.84    136.90   
    31. A(B   0,B   5,B   2)           58.96  0.003046   -0.29     58.67   
    32. A(B   7,B   5,B  11)           62.35  0.016801   -1.01     61.34   
    33. A(B   2,B   6,B   3)          143.55  0.011397   -0.45    143.10   
    34. A(B   3,B   6,B  11)           77.60  0.005824   -0.28     77.31   
    35. A(B   2,B   6,B  11)           71.44  0.010151   -0.52     70.92   
    36. A(B   5,B   7,B  11)           46.30 -0.020107    1.15     47.45   
    37. A(B   4,B   7,B  11)          119.19  0.016622   -0.91    118.28   
    38. A(B   4,B   7,B   9)          116.06 -0.033490    1.99    118.06   
    39. A(B   4,B   7,B   5)          142.80 -0.008283    0.64    143.44   
    40. A(B   5,B   7,B   9)           97.25  0.040079   -2.52     94.73   
    41. A(B   9,B   7,B  11)          119.25  0.018852   -1.18    118.07   
    42. A(B   9,B   8,B  10)           63.63 -0.006039    0.39     64.02   
    43. A(B   1,B   9,B  10)          148.98 -0.000187    0.07    149.06   
    44. A(B   1,B   9,B   7)           71.87  0.006170   -0.51     71.36   
    45. A(B   7,B   9,B   8)          134.64 -0.000499    0.10    134.73   
    46. A(B   8,B   9,B  10)           58.92 -0.000722    0.04     58.97   
    47. A(B   7,B   9,B  10)          100.90  0.024913   -1.89     99.01   
    48. A(B   1,B   9,B   8)          145.99 -0.013340    0.99    146.97   
    49. A(B   8,B  10,B   9)           57.45  0.006761   -0.44     57.01   
    50. A(B   5,B  11,B   6)          168.83  0.004275   -0.21    168.62   
    51. A(B   2,B  11,B   7)          142.49  0.001704   -0.01    142.48   
    52. A(B   2,B  11,B   6)           84.17 -0.000866    0.10     84.27   
    53. A(B   2,B  11,B   5)           87.88  0.003779   -0.24     87.64   
    54. A(B   6,B  11,B   7)          110.92 -0.004242    0.20    111.12   
    55. A(B   5,B  11,B   7)           71.35  0.003306   -0.14     71.21   
    56. D(B   6,B   2,B   0,B   5)     55.41 -0.015432    0.81     56.22   
    57. D(B  11,B   2,B   0,B   5)     35.27 -0.016284    0.97     36.24   
    58. D(B   7,B   4,B   3,B   6)     36.74 -0.023494    1.53     38.27   
    59. D(B  11,B   5,B   0,B   2)    -67.75 -0.005068    0.28    -67.48   
    60. D(B   7,B   5,B   2,B   0)    130.06  0.014589   -0.85    129.21   
    61. D(B   7,B   5,B   2,B  11)     33.22  0.015487   -0.98     32.24   
    62. D(B   0,B   5,B   2,B   6)   -101.17  0.002914   -0.23   -101.40   
    63. D(B   7,B   5,B   0,B   2)   -104.46 -0.024128    1.43   -103.03   
    64. D(B   7,B   5,B   2,B   6)     28.89  0.017502   -1.08     27.81   
    65. D(B   0,B   5,B   2,B  11)    -96.83  0.000898   -0.13    -96.96   
    66. D(B  11,B   5,B   2,B   0)     96.83 -0.000898    0.13     96.96   
    67. D(B  11,B   6,B   2,B   0)    -35.72 -0.017713    1.13    -34.58   
    68. D(B   3,B   6,B   2,B   5)     37.56  0.016114   -1.13     36.43   
    69. D(B   3,B   6,B   2,B  11)     33.28  0.018162   -1.24     32.04   
    70. D(B   3,B   6,B   2,B   0)     -2.44  0.000450   -0.11     -2.55   
    71. D(B   2,B   6,B   3,B   4)   -104.97 -0.012681    0.74   -104.24   
    72. D(B  11,B   6,B   3,B   4)    -72.79  0.006071   -0.52    -73.31   
    73. D(B  11,B   6,B   2,B   5)      4.28 -0.002049    0.11      4.39   
    74. D(B   4,B   7,B   5,B   0)    -39.58  0.001923   -0.05    -39.64   
    75. D(B   9,B   7,B   5,B   2)     89.02 -0.017217    1.14     90.17   
    76. D(B   9,B   7,B   5,B  11)    124.04 -0.005206    0.39    124.43   
    77. D(B   9,B   7,B   5,B   0)    166.23  0.010289   -0.55    165.68   
    78. D(B  11,B   7,B   5,B   2)    -35.02 -0.012012    0.76    -34.26   
    79. D(B  11,B   7,B   4,B   3)      3.41 -0.002022    0.08      3.49   
    80. D(B   9,B   7,B   4,B   3)   -150.28 -0.011123    0.60   -149.68   
    81. D(B   5,B   7,B   4,B   3)     58.46 -0.013418    0.74     59.21   
    82. D(B  11,B   7,B   5,B   0)     42.19  0.015495   -0.94     41.25   
    83. D(B   8,B   9,B   7,B   5)     62.32  0.013176   -0.94     61.38   
    84. D(B   1,B   9,B   7,B   4)     53.85  0.000445   -0.01     53.84   
    85. D(B   1,B   9,B   7,B   5)   -143.20 -0.003180    0.27   -142.93   
    86. D(B   1,B   9,B   7,B  11)    -99.83 -0.008034    0.44    -99.39   
    87. D(B   7,B   9,B   8,B  10)    -73.45 -0.041464    3.21    -70.24   
    88. D(B   1,B   9,B   8,B  10)    153.60 -0.023723    1.88    155.48   
    89. D(B   8,B   9,B   7,B   4)   -100.63  0.016802   -1.22   -101.85   
    90. D(B   8,B   9,B   7,B  11)    105.69  0.008323   -0.77    104.91   
    91. D(B   8,B  10,B   9,B   7)    136.00 -0.017007    1.36    137.37   
    92. D(B   8,B  10,B   9,B   1)   -151.14  0.037062   -2.82   -153.96   
    93. D(B   2,B  11,B   7,B   5)     59.74  0.011257   -0.71     59.03   
    94. D(B   6,B  11,B   7,B   9)     97.96 -0.020521    1.47     99.42   
    95. D(B   6,B  11,B   7,B   5)    168.37  0.004714   -0.23    168.14   
    96. D(B   5,B  11,B   7,B   4)    136.73 -0.020863    1.40    138.13   
    97. D(B   2,B  11,B   6,B   3)   -160.50  0.003881   -0.43   -160.93   
    98. D(B   7,B  11,B   6,B   2)   -144.55  0.000053   -0.11   -144.66   
    99. D(B   7,B  11,B   6,B   3)     54.95  0.003934   -0.54     54.40   
   100. D(B   5,B  11,B   6,B   2)    -44.83  0.000909   -0.11    -44.94   
   101. D(B   5,B  11,B   6,B   3)    154.67  0.004791   -0.54    154.12   
   102. D(B   2,B  11,B   5,B   0)     58.74  0.002645   -0.29     58.45   
   103. D(B   7,B  11,B   5,B   2)    148.25 -0.002604    0.24    148.49   
   104. D(B   7,B  11,B   5,B   0)   -153.01  0.000041   -0.05   -153.06   
   105. D(B   6,B  11,B   5,B   2)     44.58 -0.001126    0.13     44.70   
   106. D(B   6,B  11,B   5,B   7)   -103.67  0.001477   -0.11   -103.78   
   107. D(B   6,B  11,B   5,B   0)    103.32  0.001519   -0.16    103.16   
   108. D(B   7,B  11,B   2,B   6)    117.16 -0.007633    0.48    117.64   
   109. D(B   5,B  11,B   7,B   9)    -70.42 -0.025235    1.70    -68.72   
   110. D(B   7,B  11,B   2,B   0)   -110.72 -0.026900    1.73   -108.99   
   111. D(B   6,B  11,B   2,B   5)   -172.14 -0.003133    0.16   -171.98   
   112. D(B   6,B  11,B   2,B   0)    132.12 -0.019268    1.25    133.37   
   113. D(B   6,B  11,B   7,B   4)    -54.90 -0.016148    1.16    -53.73   
   114. D(B   5,B  11,B   2,B   6)    172.14  0.003133   -0.16    171.98   
   115. D(B   5,B  11,B   2,B   0)    -55.74 -0.016135    1.09    -54.65   
    ----------------------------------------------------------------------------

Geometry step timings:
Preparation and reading OPT file:      0.000 s ( 0.791 %)
Internal coordinates            :      0.000 s ( 0.945 %)
B/P matrices and projection     :      0.001 s (19.332 %)
Hessian update/contruction      :      0.001 s (22.921 %)
Making the step                 :      0.002 s (37.141 %)
Converting the step to Cartesian:      0.000 s ( 2.257 %)
Storing new data                :      0.000 s ( 0.849 %)
Checking convergence            :      0.000 s ( 0.888 %)
Final printing                  :      0.001 s (14.856 %)
Total time                      :      0.005 s

Time for energy+gradient        :      0.087 s
Time for complete geometry iter :      0.093 s

         *************************************************************
         *                GEOMETRY OPTIMIZATION CYCLE   2            *
         *************************************************************
---------------------------------
CARTESIAN COORDINATES (ANGSTROEM)
---------------------------------
  B    -2.467243   -0.899582    1.425242
  B     2.258602    0.469632   -0.856663
  B    -1.438385   -3.520724    0.450877
  B     1.099576    0.632250    2.240028
  B     1.819931    2.524430    1.316703
  B    -1.272106   -0.065662    0.055420
  B     0.875463   -1.275275    1.518978
  B     0.368529    0.812242    0.037962
  B    -0.379603    1.312122   -3.211818
  B     0.582409    0.682441   -1.688331
  B    -1.243202   -0.099001   -2.180033
  B    -0.203971   -0.572873    0.891635

----------------------------
CARTESIAN COORDINATES (A.U.)
----------------------------
  NO LB    ZA    FRAG    MASS        X           Y           Z
   0 B   5.0000    0    10.810   -4.662413   -1.699963    2.693317
   1 B   5.0000    0    10.810    4.268138    0.887476   -1.618859
   2 B   5.0000    0    10.810   -2.718153   -6.653203    0.852033
   3 B   5.0000    0    10.810    2.077898    1.194779    4.233040
   4 B   5.0000    0    10.810    3.439171    4.770481    2.488208
   5 B   5.0000    0    10.810   -2.403932   -0.124083    0.104728
   6 B   5.0000    0    10.810    1.654385   -2.409921    2.870453
   7 B   5.0000    0    10.810    0.696419    1.534915    0.071739
   8 B   5.0000    0    10.810   -0.717346    2.479551   -6.069455
   9 B   5.0000    0    10.810    1.100594    1.289627   -3.190483
  10 B   5.0000    0    10.810   -2.349312   -0.187086   -4.119665
  11 B   5.0000    0    10.810   -0.385449   -1.082573    1.684946

      -----------------------------------------------------------      
     |                   =====================                   |     
     |                           x T B                           |     
     |                   =====================                   |     
     |                         S. Grimme                         |     
     |          Mulliken Center for Theoretical Chemistry        |     
     |                    University of Bonn                     |     
      -----------------------------------------------------------      

   * xtb version 6.6.1 (unknown) compiled by 'builduser@buildhost' on 2023-08-07

   xtb is free software: you can redistribute it and/or modify it under
   the terms of the GNU Lesser General Public License as published by
   the Free Software Foundation, either version 3 of the License, or
   (at your option) any later version.
   
   xtb is distributed in the hope that it will be useful,
   but WITHOUT ANY WARRANTY; without even the implied warranty of
   MERCHANTABILITY or FITNESS FOR A PARTICULAR PURPOSE.  See the
   GNU Lesser General Public License for more details.
   
   Cite this work as:
   * C. Bannwarth, E. Caldeweyher, S. Ehlert, A. Hansen, P. Pracht,
     J. Seibert, S. Spicher, S. Grimme, WIREs Comput. Mol. Sci., 2020, 11,
     e01493. DOI: 10.1002/wcms.1493
   
   for GFN2-xTB:
   * C. Bannwarth, S. Ehlert and S. Grimme., J. Chem. Theory Comput., 2019,
     15, 1652-1671. DOI: 10.1021/acs.jctc.8b01176
   for GFN1-xTB:
   * S. Grimme, C. Bannwarth, P. Shushkov, J. Chem. Theory Comput., 2017,
     13, 1989-2009. DOI: 10.1021/acs.jctc.7b00118
   for GFN0-xTB:
   * P. Pracht, E. Caldeweyher, S. Ehlert, S. Grimme, ChemRxiv, 2019, preprint.
     DOI: 10.26434/chemrxiv.8326202.v1
   for GFN-FF:
   * S. Spicher and S. Grimme, Angew. Chem. Int. Ed., 2020, 59, 15665-15673.
     DOI: 10.1002/anie.202004239
   
   for ALPB and GBSA implicit solvation:
   * S. Ehlert, M. Stahn, S. Spicher, S. Grimme, J. Chem. Theory Comput.,
     2021, 17, 4250-4261. DOI: 10.1021/acs.jctc.1c00471
   
   for DFT-D4:
   * E. Caldeweyher, C. Bannwarth and S. Grimme, J. Chem. Phys., 2017,
     147, 034112. DOI: 10.1063/1.4993215
   * E. Caldeweyher, S. Ehlert, A. Hansen, H. Neugebauer, S. Spicher,
     C. Bannwarth and S. Grimme, J. Chem. Phys., 2019, 150, 154122.
     DOI: 10.1063/1.5090222
   * E. Caldeweyher, J.-M. Mewes, S. Ehlert and S. Grimme, Phys. Chem. Chem. Phys.
     2020, 22, 8499-8512. DOI: 10.1039/D0CP00502A
   
   for sTDA-xTB:
   * S. Grimme and C. Bannwarth, J. Chem. Phys., 2016, 145, 054103.
     DOI: 10.1063/1.4959605
   
   in the mass-spec context:
   * V. Asgeirsson, C. Bauer and S. Grimme, Chem. Sci., 2017, 8, 4879.
     DOI: 10.1039/c7sc00601b
   * J. Koopman and S. Grimme, ACS Omega 2019, 4, 12, 15120-15133.
     DOI: 10.1021/acsomega.9b02011
   
   for metadynamics refer to:
   * S. Grimme, J. Chem. Theory Comput., 2019, 155, 2847-2862
     DOI: 10.1021/acs.jctc.9b00143
   
   for SPH calculations refer to:
   * S. Spicher and S. Grimme, J. Chem. Theory Comput., 2021, 17, 1701-1714
     DOI: 10.1021/acs.jctc.0c01306
   
   with help from (in alphabetical order)
   P. Atkinson, C. Bannwarth, F. Bohle, G. Brandenburg, E. Caldeweyher
   M. Checinski, S. Dohm, S. Ehlert, S. Ehrlich, I. Gerasimov, C. Hölzer
   A. Katbashev, J. Koopman, C. Lavigne, S. Lehtola, F. März, M. Müller,
   F. Musil, H. Neugebauer, J. Pisarek, C. Plett, P. Pracht, F. Pultar,
   J. Seibert, P. Shushkov, S. Spicher, M. Stahn, M. Steiner, T. Strunk,
   J. Stückrath, T. Rose, and J. Unsleber
   
 * started run on 2026/04/17 at 12:14:19.044     

           -------------------------------------------------
          |                Calculation Setup                |
           -------------------------------------------------

          program call               : /usr/bin/xtb random_d2.10_001_m1_XTB.xyz --grad -c 0 -u 0 -P 1 --namespace random_d2.10_001_m1 --input random_d2.10_001_m1_XTB.input.tmp --acc 0.200000
          calculation namespace      : random_d2.10_001_m1
          coordinate file            : random_d2.10_001_m1_XTB.xyz
          omp threads                :                     1

   ID    Z sym.   atoms
    1    5 B      1-12

molecular fragmentation (1/2 indicates fragments):
112121111121
# atoms in fragment 1/2:     9     3
 fragment masses (1/2) :       97.30       32.43
CMA distance (Bohr)    :   1.221
constraining FC (au)   :  0.0500

           -------------------------------------------------
          |                 G F N 2 - x T B                 |
           -------------------------------------------------

        Reference                      10.1021/acs.jctc.8b01176
      * Hamiltonian:
        H0-scaling (s, p, d)           1.850000    2.230000    2.230000
        zeta-weighting                 0.500000
      * Dispersion:
        s8                             2.700000
        a1                             0.520000
        a2                             5.000000
        s9                             5.000000
      * Repulsion:
        kExp                           1.500000    1.000000
        rExp                           1.000000
      * Coulomb:
        alpha                          2.000000
        third order                    shell-resolved
        anisotropic                    true
        a3                             3.000000
        a5                             4.000000
        cn-shift                       1.200000
        cn-exp                         4.000000
        max-rad                        5.000000

q/qsh data taken from xtbrestart
CAMM data taken from xtbrestart

          ...................................................
          :                      SETUP                      :
          :.................................................:
          :  # basis functions                  48          :
          :  # atomic orbitals                  48          :
          :  # shells                           24          :
          :  # electrons                        36          :
          :  max. iterations                   250          :
          :  Hamiltonian                  GFN2-xTB          :
          :  restarted?                       true          :
          :  GBSA solvation                  false          :
          :  PC potential                    false          :
          :  electronic temp.          300.0000000     K    :
          :  accuracy                    0.2000000          :
          :  -> integral cutoff          0.3198970E+02      :
          :  -> integral neglect         0.2000000E-08      :
          :  -> SCF convergence          0.2000000E-06 Eh   :
          :  -> wf. convergence          0.2000000E-04 e    :
          :  Broyden damping             0.4000000          :
          ...................................................

 iter      E             dE          RMSdq      gap      omega  full diag
   1    -13.3643039 -0.133643E+02  0.156E+00    0.13       0.0  T
   2    -12.9432148  0.421089E+00  0.490E+00    0.12       1.0  T
   3    -13.3079466 -0.364732E+00  0.178E+00    0.21       1.0  T
   4    -12.3001062  0.100784E+01  0.727E+00    0.11       1.0  T
   5    -12.8666917 -0.566586E+00  0.509E+00    0.10       1.0  T
   6    -12.4594493  0.407242E+00  0.660E+00    0.17       1.0  T
   7    -12.6262953 -0.166846E+00  0.574E+00    0.07       1.0  T
   8    -13.2406745 -0.614379E+00  0.255E+00    0.07       1.0  T
   9    -13.3298916 -0.892171E-01  0.133E+00    0.11       1.0  T
  10    -13.3192761  0.106155E-01  0.160E+00    0.13       1.0  T
  11    -13.3495954 -0.303193E-01  0.109E+00    0.18       1.0  T
  12    -13.3550437 -0.544834E-02  0.932E-01    0.17       1.0  T
  13    -13.3555062 -0.462506E-03  0.934E-01    0.17       1.0  T
  14    -13.3555329 -0.266701E-04  0.918E-01    0.17       1.0  T
  15    -13.3577674 -0.223449E-02  0.848E-01    0.16       1.0  T
  16    -13.3610645 -0.329711E-02  0.742E-01    0.16       1.0  T
  17    -13.3622120 -0.114755E-02  0.665E-01    0.15       1.0  T
  18    -13.3614046  0.807458E-03  0.637E-01    0.16       1.0  T
  19    -13.3633058 -0.190125E-02  0.512E-01    0.15       1.0  T
  20    -13.3642041 -0.898334E-03  0.451E-01    0.15       1.0  T
  21    -13.3647415 -0.537347E-03  0.403E-01    0.15       1.0  T
  22    -13.3656767 -0.935197E-03  0.319E-01    0.14       1.0  T
  23    -13.3663227 -0.646008E-03  0.243E-01    0.14       1.0  T
  24    -13.3663037  0.190446E-04  0.246E-01    0.14       1.0  T
  25    -13.3670314 -0.727789E-03  0.100E-01    0.13       1.0  T
  26    -13.3671731 -0.141662E-03  0.465E-02    0.13       1.0  T
  27    -13.3671731  0.308783E-07  0.481E-02    0.13       1.0  T
  28    -13.3672000 -0.269083E-04  0.886E-03    0.13       3.3  T
  29    -13.3672005 -0.546282E-06  0.504E-03    0.13       5.7  T
  30    -13.3671998  0.728791E-06  0.770E-03    0.13       3.7  T
  31    -13.3672004 -0.634250E-06  0.394E-03    0.13       7.3  T
  32    -13.3672006 -0.128021E-06  0.285E-03    0.13      10.1  T
  33    -13.3672006 -0.770154E-07  0.128E-03    0.13      22.6  T
  34    -13.3672006 -0.822526E-08  0.946E-04    0.13      30.5  T
  35    -13.3672007 -0.348206E-08  0.703E-04    0.13      41.1  T
  36    -13.3672007 -0.293064E-08  0.502E-04    0.13      57.5  T
  37    -13.3672007 -0.949463E-09  0.402E-04    0.13      71.8  T
  38    -13.3672007 -0.785393E-09  0.293E-04    0.13      98.5  T
  39    -13.3672007 -0.693881E-09  0.126E-04    0.13     228.8  T
  40    -13.3672007 -0.126450E-09  0.597E-05    0.13     483.3  T

   *** convergence criteria satisfied after 40 iterations ***

         #    Occupation            Energy/Eh            Energy/eV
      -------------------------------------------------------------
         1        2.0000           -0.4375653             -11.9068
       ...           ...                  ...                  ...
        12        2.0000           -0.2807679              -7.6401
        13        2.0000           -0.2734550              -7.4411
        14        2.0000           -0.2706010              -7.3634
        15        2.0000           -0.2598985              -7.0722
        16        2.0000           -0.2584069              -7.0316
        17        1.9999           -0.2555473              -6.9538
        18        1.8371           -0.2479112              -6.7460 (HOMO)
        19        0.1629           -0.2433079              -6.6207 (LUMO)
        20        0.0001           -0.2357368              -6.4147
        21        0.0000           -0.2333717              -6.3504
        22        0.0000           -0.2307857              -6.2800
        23                         -0.2291215              -6.2347
       ...                                ...                  ...
        48                          1.4304184              38.9237
      -------------------------------------------------------------
                  HL-Gap            0.0046034 Eh            0.1253 eV
             Fermi-level           -0.2456096 Eh           -6.6834 eV

 SCC (total)                   0 d,  0 h,  0 min,  0.039 sec
 SCC setup                      ...        0 min,  0.000 sec (  0.320%)
 Dispersion                     ...        0 min,  0.000 sec (  0.185%)
 classical contributions        ...        0 min,  0.000 sec (  0.070%)
 integral evaluation            ...        0 min,  0.002 sec (  5.357%)
 iterations                     ...        0 min,  0.032 sec ( 81.666%)
 molecular gradient             ...        0 min,  0.005 sec ( 11.761%)
 printout                       ...        0 min,  0.000 sec (  0.596%)

         :::::::::::::::::::::::::::::::::::::::::::::::::::::
         ::                     SUMMARY                     ::
         :::::::::::::::::::::::::::::::::::::::::::::::::::::
         :: total energy             -13.271316666780 Eh    ::
         :: gradient norm              0.279599023331 Eh/a0 ::
         :: HOMO-LUMO gap              0.125263883119 eV    ::
         ::.................................................::
         :: SCC energy               -13.367200657935 Eh    ::
         :: -> isotropic ES            0.055952137628 Eh    ::
         :: -> anisotropic ES         -0.000683024403 Eh    ::
         :: -> anisotropic XC         -0.030003029513 Eh    ::
         :: -> dispersion             -0.017052135162 Eh    ::
         :: repulsion energy           0.095787171021 Eh    ::
         :: add. restraining           0.000000000000 Eh    ::
         :: total charge               0.000000000000 e     ::
         :::::::::::::::::::::::::::::::::::::::::::::::::::::


Property printout bound to 'properties.out'

           -------------------------------------------------
          | TOTAL ENERGY              -13.271316666780 Eh   |
          | GRADIENT NORM               0.279599023331 Eh/α |
          | HOMO-LUMO GAP               0.125263883119 eV   |
           -------------------------------------------------

------------------------------------------------------------------------
 * finished run on 2026/04/17 at 12:14:19.092     
------------------------------------------------------------------------
 total:
 * wall-time:     0 d,  0 h,  0 min,  0.048 sec
 *  cpu-time:     0 d,  0 h,  0 min,  0.048 sec
 * ratio c/w:     0.999 speedup
 SCF:
 * wall-time:     0 d,  0 h,  0 min,  0.039 sec
 *  cpu-time:     0 d,  0 h,  0 min,  0.039 sec
 * ratio c/w:     0.999 speedup


-------------------------   --------------------
FINAL SINGLE POINT ENERGY       -13.271316666780
-------------------------   --------------------


-------------
DIPOLE MOMENT
-------------
                                X             Y             Z
Total Dipole Moment    :     -0.55100      -0.57900       0.34600
                        -----------------------------------------
Magnitude (a.u.)       :      0.87095
Magnitude (Debye)      :      2.21378


------------------
CARTESIAN GRADIENT
------------------

   1   B   :   -0.053923522    0.002239009    0.063686750
   2   B   :    0.078645922   -0.019511708    0.004087017
   3   B   :    0.011223882   -0.032283487   -0.014423843
   4   B   :   -0.014000238    0.008508646    0.075795183
   5   B   :    0.027932898    0.073978912   -0.016360276
   6   B   :    0.107431125   -0.018371936    0.065945794
   7   B   :   -0.064542772   -0.038884420   -0.061724241
   8   B   :   -0.016851957    0.018299587    0.009349933
   9   B   :    0.003976897    0.081004508   -0.092581176
  10   B   :   -0.014195316   -0.015926741    0.013322102
  11   B   :   -0.045078241   -0.069316151   -0.019403380
  12   B   :   -0.020618678    0.010263782   -0.027693864

Difference to translation invariance:
           :   -0.0000000000    0.0000000000    0.0000000000

Difference to rotation invariance:
           :   -0.0000000521    0.0000000050   -0.0000000065

Norm of the Cartesian gradient     ...    0.2795990233
RMS gradient                       ...    0.0465998372
MAX gradient                       ...    0.1074311254
------------------------------------------------------------------------------
                         ORCA GEOMETRY RELAXATION STEP
------------------------------------------------------------------------------

Reading the OPT-File                    .... done
Getting information on internals        .... done
Copying old internal coords+grads       .... done
Making the new internal coordinates     .... (2022 redundants) done
Validating the new internal coordinates .... (2022 redundants) done
Calculating the B-matrix                .... done
Calculating the G,G- and P matrices     .... done
Transforming gradient to internals      .... done
Projecting the internal gradient        .... done
Number of atoms                         ....  12
Number of internal coordinates          .... 115
Current Energy                          ....   -13.271316667 Eh
Current gradient norm                   ....     0.279599023 Eh/bohr
Maximum allowed component of the step   ....  0.300
Current trust radius                    ....  0.300
Updating the Hessian (BFGS)             .... done
Forming the augmented Hessian           .... done
Diagonalizing the augmented Hessian     .... done
Last element of RFO vector              ....  0.707672265
Lowest eigenvalues of augmented Hessian:
 -0.249135457  0.010193583  0.012673598  0.013091390  0.020381709
Length of the computed step             ....  0.998401209
Warning: the length of the step is outside the trust region - taking restricted step instead
The input lambda is                     ....    -0.000868
   iter:   5  x=   -0.007462  g=948065.297123 f(x)=  2400.063152
   iter:  10  x=   -0.057511  g= 2167.024504 f(x)=    41.602361
   iter:  15  x=   -0.408520  g=    5.440913 f(x)=     0.682010
   iter:  20  x=   -0.830958  g=    0.217037 f(x)=     0.000201
The output lambda is                    ....    -0.830959 (23 iterations)
The final length of the internal step   ....  0.300000000
Converting the step to Cartesian space:
 Initial RMS(Int)=    0.0279751442
Transforming coordinates:
 Iter   0:  RMS(Cart)=    0.0890753100 RMS(Int)=    0.0276034297
 Iter   5:  RMS(Cart)=    0.0000000629 RMS(Int)=    0.0000000455
done
Storing new coordinates                 .... done
The predicted energy change is          ....    -0.074850863
Previously predicted energy change      ....    -0.068694327
Actually observed energy change         ....    -0.074707224
Ratio of predicted to observed change   ....     1.087531205
New trust radius                        ....     0.450000000

                                .--------------------.
          ----------------------|Geometry convergence|-------------------------
          Item                value                   Tolerance       Converged
          ---------------------------------------------------------------------
          Energy change      -0.0747072239            0.0000010000      NO
          RMS gradient        0.0232948650            0.0000300000      NO
          MAX gradient        0.0982278756            0.0001000000      NO
          RMS step            0.0279751442            0.0006000000      NO
          MAX step            0.1176759272            0.0010000000      NO
          -------------------------------------------------------------------------
          ........................................................
          Max(Bonds)      0.0623      Max(Angles)    3.05
          Max(Dihed)        3.26      Max(Improp)    0.00
          ---------------------------------------------------------------------

The optimization has not yet converged - more geometry cycles are needed


    ---------------------------------------------------------------------------
                         Redundant Internal Coordinates
                            (Angstroem and degrees)

        Definition                    Value    dE/dq     Step     New-Value
    ----------------------------------------------------------------------------
     1. B(B   2,B   0)                2.9797  0.017826 -0.0114    2.9682   
     2. B(B   4,B   3)                2.2253  0.054837 -0.0350    2.1902   
     3. B(B   5,B   0)                2.0000  0.056078 -0.0358    1.9642   
     4. B(B   5,B   2)                3.4816  0.002520 -0.0013    3.4803   
     5. B(B   6,B   2)                3.3966 -0.006881  0.0044    3.4010   
     6. B(B   6,B   3)                2.0515  0.063839 -0.0409    2.0107   
     7. B(B   7,B   5)                1.8608 -0.003674  0.0019    1.8627   
     8. B(B   7,B   4)                2.5833  0.030368 -0.0193    2.5640   
     9. B(B   9,B   8)                1.9087  0.073591 -0.0470    1.8617   
    10. B(B   9,B   7)                1.7443  0.098228 -0.0623    1.6821   
    11. B(B   9,B   1)                1.8832  0.074009 -0.0478    1.8354   
    12. B(B  10,B   8)                1.9498  0.049431 -0.0327    1.9171   
    13. B(B  10,B   9)                2.0458  0.047605 -0.0306    2.0152   
    14. B(B  11,B   2)                3.2261  0.010223 -0.0066    3.2196   
    15. B(B  11,B   7)                1.7248  0.024126 -0.0151    1.7097   
    16. B(B  11,B   6)                1.4325 -0.038912  0.0256    1.4581   
    17. B(B  11,B   5)                1.4483 -0.048070  0.0307    1.4790   
    18. A(B   2,B   0,B   5)           86.36 -0.012779    0.88     87.24   
    19. A(B   0,B   2,B  11)           44.25  0.002904   -0.21     44.04   
    20. A(B   0,B   2,B   5)           34.98  0.009545   -0.66     34.32   
    21. A(B   5,B   2,B   6)           49.24 -0.014179    0.99     50.23   
    22. A(B   5,B   2,B  11)           24.56 -0.008117    0.56     25.12   
    23. A(B   6,B   2,B  11)           24.81 -0.006212    0.44     25.26   
    24. A(B   0,B   2,B   6)           63.31 -0.006775    0.47     63.78   
    25. A(B   4,B   3,B   6)          132.86 -0.015054    1.06    133.91   
    26. A(B   3,B   4,B   7)           57.31 -0.004416    0.30     57.61   
    27. A(B   2,B   5,B   7)          120.75  0.015101   -1.03    119.72   
    28. A(B   0,B   5,B  11)           84.22  0.002907   -0.20     84.02   
    29. A(B   2,B   5,B  11)           67.80  0.003622   -0.26     67.53   
    30. A(B   0,B   5,B   7)          136.88  0.014598   -0.98    135.90   
    31. A(B   0,B   5,B   2)           58.66  0.003234   -0.22     58.44   
    32. A(B   7,B   5,B  11)           61.34  0.016249   -1.11     60.23   
    33. A(B   2,B   6,B   3)          143.09  0.006459   -0.47    142.63   
    34. A(B   3,B   6,B  11)           77.31  0.003258   -0.24     77.07   
    35. A(B   2,B   6,B  11)           70.92  0.007557   -0.53     70.39   
    36. A(B   5,B   7,B  11)           47.46 -0.017527    1.21     48.67   
    37. A(B   4,B   7,B  11)          118.28  0.013602   -0.95    117.33   
    38. A(B   4,B   7,B   9)          118.06 -0.038624    2.53    120.58   
    39. A(B   4,B   7,B   5)          143.46 -0.009799    0.64    144.10   
    40. A(B   5,B   7,B   9)           94.72  0.046611   -3.05     91.67   
    41. A(B   9,B   7,B  11)          118.08  0.025096   -1.60    116.48   
    42. A(B   9,B   8,B  10)           64.03 -0.005583    0.39     64.42   
[...]
 SCF:
 * wall-time:     0 d,  0 h,  0 min,  0.029 sec
 *  cpu-time:     0 d,  0 h,  0 min,  0.029 sec
 * ratio c/w:     0.999 speedup


-------------------------   --------------------
FINAL SINGLE POINT ENERGY       -14.181024493860
-------------------------   --------------------


-------------
DIPOLE MOMENT
-------------
                                X             Y             Z
Total Dipole Moment    :     -0.30900      -0.42200       0.70300
                        -----------------------------------------
Magnitude (a.u.)       :      0.87623
Magnitude (Debye)      :      2.22719


------------------
CARTESIAN GRADIENT
------------------

   1   B   :   -0.004175437   -0.000782811   -0.001959305
   2   B   :    0.001011842   -0.003278321    0.010335629
   3   B   :   -0.000870472   -0.002290707    0.003060463
   4   B   :    0.000870831   -0.003084872    0.007125705
   5   B   :   -0.001422343    0.004450143   -0.011193263
   6   B   :   -0.000277469   -0.003831141   -0.001210741
   7   B   :   -0.005018016    0.001369797   -0.009661415
   8   B   :    0.007937372    0.001645523    0.010160964
   9   B   :    0.007781289    0.006051846   -0.000795979
  10   B   :   -0.008441097   -0.004334332   -0.006303900
  11   B   :   -0.004670135   -0.002796199    0.004313702
  12   B   :    0.007273636    0.006881073   -0.003871860

Difference to translation invariance:
           :   -0.0000000000    0.0000000000   -0.0000000000

Difference to rotation invariance:
           :    0.0000000042    0.0000000043    0.0000000070

Norm of the Cartesian gradient     ...    0.0325678240
RMS gradient                       ...    0.0054279707
MAX gradient                       ...    0.0111932627
------------------------------------------------------------------------------
                         ORCA GEOMETRY RELAXATION STEP
------------------------------------------------------------------------------

Reading the OPT-File                    .... done
Getting information on internals        .... done
Copying old internal coords+grads       .... done
Making the new internal coordinates     .... (2022 redundants) done
Validating the new internal coordinates .... (2022 redundants) done
Calculating the B-matrix                .... done
Calculating the G,G- and P matrices     .... done
Transforming gradient to internals      .... done
Projecting the internal gradient        .... done
Number of atoms                         ....  12
Number of internal coordinates          .... 115
Current Energy                          ....   -14.181024494 Eh
Current gradient norm                   ....     0.032567824 Eh/bohr
Maximum allowed component of the step   ....  0.300
Current trust radius                    ....  0.467
Updating the Hessian (BFGS)             .... done
Forming the augmented Hessian           .... done
Diagonalizing the augmented Hessian     .... done
Last element of RFO vector              ....  0.878185728
Lowest eigenvalues of augmented Hessian:
 -0.001538762  0.000029433  0.000394444  0.001535033  0.002403917
Length of the computed step             ....  0.544668150
Warning: the length of the step is outside the trust region - taking restricted step instead
The input lambda is                     ....    -0.001000
   iter:   5  x=   -0.001839  g=  202.451085 f(x)=     0.000074
The output lambda is                    ....    -0.001839 (7 iterations)
The final length of the internal step   ....  0.466666667
Converting the step to Cartesian space:
 Initial RMS(Int)=    0.0435168911
Transforming coordinates:
 Iter   0:  RMS(Cart)=    0.0320949839 RMS(Int)=    0.5818257761
 Iter   5:  RMS(Cart)=    0.0000000100 RMS(Int)=    0.0000000240
done
Storing new coordinates                 .... done
The predicted energy change is          ....    -0.000931526
Previously predicted energy change      ....    -0.002009338
Actually observed energy change         ....    -0.000815165
Ratio of predicted to observed change   ....     0.405688057
New trust radius                        ....     0.311111111

                                .--------------------.
          ----------------------|Geometry convergence|-------------------------
          Item                value                   Tolerance       Converged
          ---------------------------------------------------------------------
          Energy change      -0.0008151646            0.0000010000      NO
          RMS gradient        0.0024436513            0.0000300000      NO
          MAX gradient        0.0095803843            0.0001000000      NO
          RMS step            0.0435168911            0.0006000000      NO
          MAX step            0.1588461755            0.0010000000      NO
          -------------------------------------------------------------------------
          ........................................................
          Max(Bonds)      0.0295      Max(Angles)    2.20
          Max(Dihed)        9.10      Max(Improp)    0.00
          ---------------------------------------------------------------------

The optimization has not yet converged - more geometry cycles are needed


    ---------------------------------------------------------------------------
                         Redundant Internal Coordinates
                            (Angstroem and degrees)

        Definition                    Value    dE/dq     Step     New-Value
    ----------------------------------------------------------------------------
     1. B(B   2,B   0)                1.4445 -0.000746 -0.0112    1.4333   
     2. B(B   4,B   3)                1.5291  0.004772  0.0072    1.5363   
     3. B(B   5,B   0)                1.6691  0.000326 -0.0093    1.6598   
     4. B(B   5,B   2)                3.0602 -0.000047 -0.0056    3.0547   
     5. B(B   6,B   2)                4.0887  0.000907 -0.0295    4.0592   
     6. B(B   6,B   3)                1.4930  0.002480  0.0005    1.4934   
     7. B(B   7,B   5)                1.9503  0.001279 -0.0062    1.9441   
     8. B(B   7,B   4)                2.2521 -0.007218  0.0105    2.2626   
     9. B(B   9,B   8)                1.5080 -0.005415  0.0053    1.5133   
    10. B(B   9,B   7)                1.8083 -0.009340  0.0016    1.8099   
    11. B(B   9,B   1)                1.5185  0.009580  0.0034    1.5220   
    12. B(B  10,B   8)                1.5157  0.005505 -0.0058    1.5099   
    13. B(B  10,B   9)                2.6912  0.000701 -0.0112    2.6800   
    14. B(B  11,B   2)                2.7572  0.003069 -0.0068    2.7503   
    15. B(B  11,B   7)                2.7196 -0.006161  0.0030    2.7226   
    16. B(B  11,B   6)                1.5072 -0.004206 -0.0039    1.5032   
    17. B(B  11,B   5)                1.6218 -0.003293 -0.0028    1.6190   
    18. A(B   2,B   0,B   5)          158.69  0.000671   -0.38    158.30   
    19. A(B   0,B   2,B  11)           26.04 -0.000419   -0.42     25.62   
    20. A(B   0,B   2,B   5)           11.43 -0.000325    0.47     11.91   
    21. A(B   5,B   2,B   6)           43.62 -0.001521    0.59     44.21   
    22. A(B   5,B   2,B  11)           31.83 -0.000688   -0.10     31.73   
    23. A(B   6,B   2,B  11)           12.07 -0.000851    0.74     12.81   
    24. A(B   0,B   2,B   6)           38.06 -0.001266    0.51     38.57   
    25. A(B   4,B   3,B   6)          113.44  0.000528    0.58    114.02   
    26. A(B   3,B   4,B   7)          109.17 -0.004906    0.72    109.89   
    27. A(B   2,B   5,B   7)          161.00 -0.001006    0.66    161.66   
    28. A(B   0,B   5,B  11)           57.81  0.001390   -0.63     57.18   
    29. A(B   2,B   5,B  11)           63.73  0.001124   -0.04     63.69   
    30. A(B   0,B   5,B   7)          156.53 -0.000841    0.14    156.67   
    31. A(B   0,B   5,B   2)            9.88 -0.000346   -0.09      9.79   
    32. A(B   7,B   5,B  11)           98.75 -0.002243    0.64     99.40   
    33. A(B   2,B   6,B   3)          166.60  0.001853   -0.58    166.02   
    34. A(B   3,B   6,B  11)          147.25  0.002442   -1.37    145.87   
    35. A(B   2,B   6,B  11)           22.49 -0.000793    1.25     23.75   
    36. A(B   5,B   7,B  11)           36.11  0.000343   -0.05     36.06   
    37. A(B   4,B   7,B  11)           86.39  0.005015   -0.93     85.46   
    38. A(B   4,B   7,B   9)           92.07 -0.005110    0.63     92.70   
    39. A(B   4,B   7,B   5)          122.47  0.005370   -0.61    121.86   
    40. A(B   5,B   7,B   9)          145.39 -0.000276    0.19    145.58   
    41. A(B   9,B   7,B  11)          175.59 -0.000127   -0.15    175.44   
    42. A(B   9,B   8,B  10)          125.76  0.000472   -0.80    124.95   
    43. A(B   1,B   9,B  10)          102.62 -0.004357    0.16    102.78   
    44. A(B   1,B   9,B   7)           62.20 -0.006338    0.14     62.34   
    45. A(B   7,B   9,B   8)           67.63  0.002797    0.36     67.99   
    46. A(B   8,B   9,B  10)           27.20  0.000742    0.23     27.42   
    47. A(B   7,B   9,B  10)           40.47  0.002116    0.03     40.50   
    48. A(B   1,B   9,B   8)          129.81 -0.003613    1.04    130.85   
    49. A(B   8,B  10,B   9)           27.05 -0.001214    0.58     27.63   
    50. A(B   5,B  11,B   6)          128.81 -0.001127    2.20    131.01   
    51. A(B   2,B  11,B   7)          129.09  0.001456   -0.27    128.82   
    52. A(B   2,B  11,B   6)          145.44  0.001644   -1.99    143.44   
    53. A(B   2,B  11,B   5)           84.44 -0.000436    0.14     84.57   
    54. A(B   6,B  11,B   7)           83.71 -0.003038    1.77     85.48   
    55. A(B   5,B  11,B   7)           45.14  0.001900   -0.60     44.54   
    56. D(B   6,B   2,B   0,B   5)    113.00 -0.000710   -1.38    111.62   
    57. D(B  11,B   2,B   0,B   5)    110.91 -0.000596   -0.08    110.83   
    58. D(B   7,B   4,B   3,B   6)     -1.64  0.000770   -0.01     -1.66   
    59. D(B  11,B   5,B   0,B   2)   -124.53  0.000232   -0.41   -124.93   
    60. D(B   7,B   5,B   2,B   0)     75.21 -0.001019   -0.06     75.15   
    61. D(B   7,B   5,B   2,B  11)     24.18 -0.001612    0.66     24.84   
    62. D(B   0,B   5,B   2,B   6)    -55.35 -0.000407   -1.40    -56.75   
    63. D(B   7,B   5,B   0,B   2)   -127.79  0.000924   -0.64   -128.44   
    64. D(B   7,B   5,B   2,B   6)     19.86 -0.001426   -1.46     18.40   
    65. D(B   0,B   5,B   2,B  11)    -51.03 -0.000594    0.73    -50.30   
    66. D(B  11,B   5,B   2,B   0)     51.03  0.000594   -0.73     50.30   
    67. D(B  11,B   6,B   2,B   0)     -4.38 -0.000001    2.73     -1.65   
    68. D(B   3,B   6,B   2,B   5)    -38.37 -0.000955    1.99    -36.38   
    69. D(B   3,B   6,B   2,B  11)    -49.33 -0.001033   -1.09    -50.43   
    70. D(B   3,B   6,B   2,B   0)    -53.71 -0.001034    1.64    -52.08   
    71. D(B   2,B   6,B   3,B   4)     35.80  0.000389   -0.97     34.83   
    72. D(B  11,B   6,B   3,B   4)      3.36 -0.001371   -2.17      1.19   
    73. D(B  11,B   6,B   2,B   5)     10.96  0.000078    3.09     14.05   
    74. D(B   4,B   7,B   5,B   0)      5.66 -0.001000    2.90      8.55   
    75. D(B   9,B   7,B   5,B   2)    165.35  0.001492    1.13    166.48   
    76. D(B   9,B   7,B   5,B  11)   -172.83  0.000138    1.65   -171.18   
    77. D(B   9,B   7,B   5,B   0)   -170.03 -0.000428    1.75   -168.28   
    78. D(B  11,B   7,B   5,B   2)    -21.82  0.001353   -0.52    -22.34   
    79. D(B  11,B   7,B   4,B   3)      0.72 -0.000301    1.09      1.81   
    80. D(B   9,B   7,B   4,B   3)    176.58 -0.000384    0.38    176.96   
    81. D(B   5,B   7,B   4,B   3)     -0.97 -0.000050   -0.48     -1.45   
    82. D(B  11,B   7,B   5,B   0)      2.79 -0.000566    0.10      2.89   
    83. D(B   8,B   9,B   7,B   5)     -2.44  0.001827   -2.82     -5.26   
    84. D(B   1,B   9,B   7,B   4)     -0.31 -0.000512    1.82      1.50   
    85. D(B   1,B   9,B   7,B   5)    176.05 -0.000765    3.03    179.08   
    86. D(B   1,B   9,B   7,B  11)     69.13 -0.001038    6.38     75.51   
    87. D(B   7,B   9,B   8,B  10)      2.47  0.002174    1.17      3.63   
    88. D(B   1,B   9,B   8,B  10)      0.73 -0.000618   -6.42     -5.70   
    89. D(B   8,B   9,B   7,B   4)   -178.80  0.002081   -4.03   -182.83   
    90. D(B   8,B   9,B   7,B  11)   -109.36  0.001555   -9.10   -118.46   
    91. D(B   8,B  10,B   9,B   7)   -176.48  0.003019    0.83   -175.65   
    92. D(B   8,B  10,B   9,B   1)   -179.43 -0.000466    5.60   -173.83   
    93. D(B   2,B  11,B   7,B   5)      9.96  0.000022   -0.02      9.95   
    94. D(B   6,B  11,B   7,B   9)    -69.33  0.000696   -6.46    -75.79   
    95. D(B   6,B  11,B   7,B   5)    177.90  0.000333   -4.33    173.57   
    96. D(B   5,B  11,B   7,B   4)   -177.58 -0.000524    2.51   -175.07   
    97. D(B   2,B  11,B   6,B   3)    161.04  0.001063    0.10    161.14   
    98. D(B   7,B  11,B   6,B   2)   -163.39 -0.000075    2.96   -160.43   
    99. D(B   7,B  11,B   6,B   3)     -2.35  0.000988    3.06      0.71   
   100. D(B   5,B  11,B   6,B   2)   -161.48 -0.000346   -4.68   -166.16   
   101. D(B   5,B  11,B   6,B   3)     -0.44  0.000717   -4.58     -5.02   
   102. D(B   2,B  11,B   5,B   0)      9.07 -0.000380   -0.08      8.99   
   103. D(B   7,B  11,B   5,B   2)    172.25  0.000138    0.21    172.45   
   104. D(B   7,B  11,B   5,B   0)   -178.69 -0.000242    0.13   -178.56   
   105. D(B   6,B  11,B   5,B   2)    169.57  0.000622    6.19    175.75   
   106. D(B   6,B  11,B   5,B   7)     -2.68  0.000483    5.98      3.30   
   107. D(B   6,B  11,B   5,B   0)    178.64  0.000242    6.11    184.75   
   108. D(B   7,B  11,B   2,B   6)    158.52 -0.000234   -4.67    153.85   
   109. D(B   5,B  11,B   7,B   9)    112.77  0.000363    7.50    120.27   
   110. D(B   7,B  11,B   2,B   0)    -27.63 -0.000154   -0.84    -28.48   
   111. D(B   6,B  11,B   2,B   5)   -165.60 -0.000021    4.73   -160.87   
   112. D(B   6,B  11,B   2,B   0)    173.84  0.000080    3.82    177.67   
   113. D(B   6,B  11,B   7,B   4)      0.32 -0.000191   -1.82     -1.50   
   114. D(B   5,B  11,B   2,B   6)    165.60  0.000021   -4.73    160.87   
   115. D(B   5,B  11,B   2,B   0)    -20.55  0.000102   -0.91    -21.47   
    ----------------------------------------------------------------------------

Geometry step timings:
Preparation and reading OPT file:      0.000 s ( 0.450 %)
Internal coordinates            :      0.000 s ( 0.648 %)
B/P matrices and projection     :      0.002 s (25.899 %)
Hessian update/contruction      :      0.001 s (16.362 %)
Making the step                 :      0.003 s (38.003 %)
Converting the step to Cartesian:      0.000 s ( 2.989 %)
Storing new data                :      0.000 s ( 1.349 %)
Checking convergence            :      0.000 s ( 1.138 %)
Final printing                  :      0.001 s (13.148 %)
Total time                      :      0.008 s

Time for energy+gradient        :      0.060 s
Time for complete geometry iter :      0.068 s




    ----------------------------------------------------------------------------
                                  WARNING !!!
       The optimization did not converge but reached the maximum number of
       optimization cycles.
       Please check your results very carefully.
    ----------------------------------------------------------------------------



--------------------------------
SUGGESTED CITATIONS FOR THIS RUN
--------------------------------

Below you find a list of papers that are relevant to this ORCA run
We neither can nor want to force you to cite these papers, but we appreciate if you do
You receive ORCA, which is the product of decades of hard work by many enthusiastic individuals, for free
The only thing we kindly ask in return is that you cite our papers,
We deeply appreciate it, if you show your appreciation for ORCA by not just citing the generic ORCA reference.

Please note that relegating all ORCA citations to the supporting information does *not* help us.
SI sections are not indexed - citations you put there will not count into any citation statistics
But we need these citations in order to attract the funding resources that allow us to do what we are doing

Therefore, if you are a happy ORCA user, please consider citing a few of the papers listed below in the main body of your paper

In addition to the list printed below, the program has created the file random_d2.10_001_m1.bibtex that contains the list in bibtex format
You can import this file easily into all common literature databanks and citation aid programs

It goes without saying that in many instances, there are alternative algorithms to achieve similar
results as the ones you have gotten from ORCA. It is, of course, also the case that in some instances
ORCA just re-implements algorithms worked out by others. We are fully aware of that and we are also
fully appreciative of our colleagues work. Hence this citation list should not be read as indicating
that the listed papers, which are focused on our own work, are the only ones worth citing. It simply
meant to make it easier for users to cite ORCA specific papers. It is not a substitute for doing your
own literature research and citing the relevant literature in a scientifically appropriate manner.

List of essential papers. We consider these as the minimum necessary citations

  1. Bannwarth, C.; Ehlert, S.; Grimme, S.
     GFN2-xTB—An Accurate and Broadly Parametrized Self-Consistent Tight-Binding Quantum Chemical Method with Multipole Electrostatics and Density-Dependent Dispersion Contributions
     J. Chem. Theory Comput. 2019 15(3), 1652-1671
     doi.org/10.1021/acs.jctc.8b01176
  2. Neese, F.
     Software update: the ORCA program system, version 6.0
     WIRES Comput. Molec. Sci. 2025 15(1), e70019
     doi.org/10.1002/wcms.70019

List of papers to cite with high priority. The work reported in these papers was absolutely
necessary for this run to complete.
Our perspective: the developers of density functionals and basis sets usually get cited in chemistry papers
Good! But without the algorithms to do something with them, the functionals or basis sets would not do anything.
Hence, in our opinion, the algorithm design and method developments papers are equally worthy of getting cited

  1. Bannwarth, C.; Caldeweyher, E.; Ehlert, S.; Hansen, A.; Pracht, P.; Seibert, J.; Spicher, S.; Grimme, S.
     Extended tight-binding quantum chemistry methods
     WIRES Comput. Molec. Sci. 2020 11(2), e1493
     doi.org/10.1002/wcms.1493

List of suggested additional citations. These are papers that are important in the 'surrounding' of 
of this run, or papers that preceded the highly important papers. If you like your results we are grateful for a citation.

  1. Neese, F.
     The ORCA program system
     WIRES Comput. Molec. Sci. 2012 2(1), 73-78
     doi.org/10.1002/wcms.81
  2. Neese, F.
     Software update: the ORCA program system, version 4.0
     WIRES Comput. Molec. Sci. 2018 8(1), 1-6
     doi.org/10.1002/wcms.1327
  3. Neese, F.; Wennmohs, F.; Becker, U.; Riplinger, C.
     The ORCA quantum chemistry program package
     J. Chem. Phys. 2020 152(22), 224108
     doi.org/10.1063/5.0004608
  4. Neese, F.
     Software update: The ORCA program system—Version 5.0
     WIRES Comput. Molec. Sci. 2022 12(1), e1606
     doi.org/10.1002/wcms.1606

List of optional additional citations

  1. Neese, F.
     Approximate second-order SCF convergence for spin unrestricted wavefunctions
     Chem. Phys. Lett. 2000 325(1-3), 93-98
     doi.org/10.1016/s0009-2614(00)00662-x

Timings for individual modules:

Sum of individual times          ...        3.292 sec (=   0.055 min)
Geometry relaxation              ...        0.324 sec (=   0.005 min)   9.8 %
XTB module                       ...        2.968 sec (=   0.049 min)  90.2 %
                             ****ORCA TERMINATED NORMALLY****
TOTAL RUN TIME: 0 days 0 hours 0 minutes 3 seconds 768 msec
