
                                 *****************
                                 * O   R   C   A *
                                 *****************

                                            #,                                       
                                            ###                                      
                                            ####                                     
                                            #####                                    
                                            ######                                   
                                           ########,                                 
                                     ,,################,,,,,                         
                               ,,#################################,,                 
                          ,,##########################################,,             
                       ,#########################################, ''#####,          
                    ,#############################################,,   '####,        
                  ,##################################################,,,,####,       
                ,###########''''           ''''###############################       
              ,#####''   ,,,,##########,,,,          '''####'''          '####       
            ,##' ,,,,###########################,,,                        '##       
           ' ,,###''''                  '''############,,,                           
         ,,##''                                '''############,,,,        ,,,,,,###''
      ,#''                                            '''#######################'''  
     '                                                          ''''####''''         
             ,#######,   #######,   ,#######,      ##                                
            ,#'     '#,  ##    ##  ,#'     '#,    #''#        ,####,    ,#,          
            ##       ##  ##   ,#'  ##            #'  '#       #'       ,# #          
            ##       ##  #######   ##           ,######,      #####,      #          
            '#,     ,#'  ##    ##  '#,     ,#' ,#      #,     #,   #      #          
             '#######'   ##     ##  '#######'  #'      '#     '####' #    #          



                #########################################################
                #                        -***-                          #
                #          Department of theory and spectroscopy        #
                #                                                       #
                #                      Frank Neese                      #
                #                                                       #
                #     Directorship, Architecture, Infrastructure        #
                #                    SHARK, DRIVERS                     #
                #        Core code/Algorithms in most modules           #
                #                                                       #
                #        Max Planck Institute fuer Kohlenforschung      #
                #                Kaiser Wilhelm Platz 1                 #
                #                 D-45470 Muelheim/Ruhr                 #
                #                      Germany                          #
                #                                                       #
                #                  All rights reserved                  #
                #                        -***-                          #
                #########################################################


                         Program Version 6.1.1  -  RELEASE   -
                                (GIT: $487d211c$)
                          ($2025-11-21 10:33:24 +0100$)
                                                                         
                                  - NO-DMRG VERSION -                    
                                                                         


 With contributions from (in alphabetic order):
[Max-Planck-Institut fuer Kohlenforschung]                               
  Daniel Aravena         : Magnetic Suceptibility                        
  Michael Atanasov       : Ab Initio Ligand Field Theory (pilot matlab implementation)
  Alexander A. Auer      : GIAO ZORA, VPT2 properties, NMR spectrum      
  Ute Becker             : All parallelization in ORCA, NUMFREQ, NUMCALC 
  Giovanni Bistoni       : ED, misc. LED, open-shell LED, HFLD           
  Dmytro Bykov           : pre 5.0 version of the SCF Hessian            
  Marcos Casanova-Páez   : Triplet and SCS-CIS(D). UHF-(DLPNO)-IP/EA/STEOM-CCSD. UHF-CVS-IP/STEOM-CCSD   
  Vijay G. Chilkuri      : MRCI spin determinant printing, contributions to CSF-ICE 
  Pauline Colinet        : FMM embedding                                 
  Dipayan Datta          : RHF DLPNO-CCSD density                        
  Achintya Kumar Dutta   : EOM-CC, STEOM-CC                              
  Nicolas Foglia         : Exact transition moments, OPA infrastructure, MCD improvements    
  Dmitry Ganyushin       : Spin-Orbit,Spin-Spin,Magnetic field MRCI      
  Miquel Garcia-Rates    : C-PCM and meta-GGA Hessian, CCSD/C-PCM, Gaussian charge scheme 
  Tiago L. C. Gouveia    : GS-ROHF, GS-ROCIS                             
  Yang Guo               : DLPNO-NEVPT2, F12-NEVPT2, CIM, IAO-localization        
  Andreas Hansen         : Spin unrestricted coupled pair/coupled cluster methods 
  Ingolf Harden          : AUTO-CI MPn and infrastructure                
  Benjamin Helmich-Paris : MC-RPA, TRAH-(SCF,CASSCF), AVAS, COSX integrals, SCF dyn. polar., MC-PDFT, srDFT 
  Lee Huntington         : MR-EOM, pCC                                   
  Robert Izsak           : Overlap fitted RIJCOSX, COSX-SCS-MP3, EOM     
  Riya Kayal             : Wick's Theorem for AUTO-CI, AUTO-CI UHF-CCSDT 
  Emily Kempfer          : AUTO-CI RHF CISDT and CCSDT, approximate NEVPT4
  Christian Kollmar      : KDIIS, OOCD, Brueckner-CCSD(T), CCSD density, CASPT2, CASPT2-K, improved NEVPT2 
  Axel Koslowski         : Symmetry handling                             
  Simone Kossmann        : meta-GGA functionals, TD-DFT gradient, OOMP2, (MP2 Hessian; deprecated post 5.0) 
  Lucas Lang             : DCDCAS, Hyperfine gauge corrections, ICE-SOC+SSC
  Marvin Lechner         : AUTO-CI (C++ implementation), FIC-MRCC        
  Spencer Leger          : CASSCF response                               
  Dagmar Lenk            : GEPOL surface, SMD, ORCA-2-JSON               
  Dimitrios Liakos       : Extrapolation schemes; Compound Job, Property file
  Dimitrios Manganas     : Further ROCIS development; embedding schemes. LFT, Crystal Embedding 
  Dimitrios Pantazis     : SARC Basis sets                               
  Anastasios Papadopoulos: AUTO-CI, single reference methods and gradients 
  Taras Petrenko         : pre 6.0 DFT Hessian and TD-DFT gradient,  ECA, NRVS 
  Petra Pikulova         : Analytic Raman intensities                    
  Peter Pinski           : DLPNO-MP2, DLPNO-MP2 Gradient                 
  Shashank Vittal Rao    : ES-AILFT, MagRelax                            
  Christoph Reimann      : Effective Core Potentials                     
  Marius Retegan         : Local ZFS, SOC                                
  Christoph Riplinger    : Optimizer, TS searches, QM/MM, DLPNO-CCSD(T), (RO)-DLPNO pert. Triples 
  Michael Roemelt        : Original ROCIS implementation, recursive CI coupling coefficients
  Masaaki Saitow         : Open-shell DLPNO-CCSD energy and density      
  Barbara Sandhoefer     : DKH picture change effects                    
  Yorick L. A. Schmerwitz: GMF and freeze-and-release deltaSCF, NEB S-IDPP initial path                    
  Kantharuban Sivalingam : CASSCF convergence/infrastructure, NEVPT2, NEVPT3, NEVPT4(SD), FIC-MRCI and CEPA variants
  Bernardo de Souza      : ESD, SOC TD-DFT                               
  Georgi L. Stoychev     : AutoAux, RI-MP2 NMR, DLPNO-MP2 response, X2C  
  Van Anh Tran           : RI-MP2 g-tensors                              
  Willem Van den Heuvel  : Paramagnetic NMR                              
  Zikuan Wang            : NOTCH, Electric field optimization            
  Frank Wennmohs         : Technical directorship and infrastructure     
  Hang Xu                : AUTO-CI-Response properties                   
                                                                         
[FACCTs GmbH]                                                            
  Markus Bursch, Nicolas Foglia, Miquel Garcia-Rates, Ingolf Harden, Hagen Neugebauer, Anastasios Papadopoulos, 
  Christoph Riplinger, Bernardo de Souza, Georgi L. Stoychev                                                    
                                                                 
  APM, various basis sets, CI-OPT, improved COSX, DLPNO-Multilevel,           
  DOCKER, DRACO, updates on ESD, Fragmentator, GOAT, IRC, LR-CPCM, L-BFGS, MBIS, meta-GGA TD-DFT gradient, ML-optimized integration grids, 
  MM, NACMEs, nearIR, NEB, NEB-TS, NL-DFT gradient (VV10), 2- and 3-layer-ONIOM, interface openCOSMO-RS, QMMM,   
  Crystal-QMMM, RESP, rigid body optimization, SF, symmetry and pop. for TD-DFT, various functionals, SOLVATOR                                   
                                                                         
[Other institutions]                                                     
  V. Asgeirsson          : NEB                                           
  Christoph Bannwarth    : sTDA-DFT, sTD-DFT, PBEh-3c, B97-3c, D3        
  Giovanni Bistoni       : ETS/NOCV, ADLD/ADEX, COVALED                  
  Martin Brehm           : Molecular dynamics                            
  Ronald Cardenas        : ETS/NOCV                                      
  Martina Colucci        : COVALED                                       
  Sebastian Ehlert       : rSCAN, r2SCAN, r2SCAN-3c, D4, dhf basis sets  
  Marvin Friede          : D4 for Fr, Ra, Ac-Lr                          
  Lars Goerigk           : TD-DFT with DH, B97 family of functionals     
  Stefan Grimme          : VdW corrections, initial TS optimization, DFT functionals, gCP, sTDA/sTD-DF 
  Waldemar Hujo          : DFT-NL                                        
  H. Jonsson             : NEB                                           
  Holger Kruse           : gCP                                           
  Marcel Mueller         : wB97X-3c, vDZP basis set                      
  Hagen Neugebauer       : wr2SCAN, Native XTB                           
  Gianluca Regni         : ADLD/ADEX                                     
  Tobias Risthaus        : pre 6.0 range-separated hybrid DFT and stability analysis
  Lukas Wittmann         : regularized MP2, r2SCAN double-hybrids, wr2SCAN        
                                                                         
We gratefully acknowledge several colleagues who have allowed us to      
interface, adapt or use parts of their codes:                            
  Ed Valeev, F. Pavosevic, A. Kumar             : LibInt (2-el integral package), F12 methods 
  Garnet Chan, S. Sharma, J. Yang, R. Olivares  : DMRG                   
  Ulf Ekstrom                                   : XCFun DFT Library      
  Mihaly Kallay                                 : mrcc  (arbitrary order and MRCC methods)
  Frank Weinhold                                : gennbo (NPA and NBO analysis)           
  Simon Mueller                                 : openCOSMO-RS                            
  Christopher J. Cramer and Donald G. Truhlar   : smd solvation model                     
  S Lehtola, MJT Oliveira, MAL Marques          : LibXC Library                           
  Liviu Ungur et al                             : ANISO software                          


 Your calculation uses the libint2 library for the computation of 2-el integrals
 For citations please refer to: http://libint.valeyev.net

 Your ORCA version has been built with support for libXC version: 7.0.0
 For citations please refer to: https://libxc.gitlab.io

 This ORCA versions uses:
   CBLAS   interface :  Fast vector & matrix operations
   LAPACKE interface :  Fast linear algebra routines
   SCALAPACK package :  Parallel linear algebra routines
   Shared memory     :  Shared parallel matrices
   BLAS/LAPACK       :  OpenBLAS 0.3.29  USE64BITINT DYNAMIC_ARCH NO_AFFINITY Zen SINGLE_THREADED
        Core in use  :  Zen
   Copyright (c) 2011-2014, The OpenBLAS Project


  ***********************************
  * Starting time: Fri Apr 17 12:14:06 2026
  * Host name:     vmi3233575
  * Process ID:    331492
  * Working dir.:  /root/orca_b12_vps_pack/jobs/01_xtb/mult_1
  ***********************************

NOTE: MaxCore=500 MB was set to SCF,MP2,MDCI,CIPSI,MRCI,RASCI and CIS
      => If you want to overwrite this, your respective input block should be placed after the MaxCore statement


***************************************
The coordinates will be read from file: ../../../starts/random_d1.70_003.xyz
***************************************


Your calculation utilizes the semiempirical GFN2-xTB method
Please cite in your paper:
Bannwarth, C.; Ehlert S.; Grimme, S. J. Chem. Theory Comput. 2019, 15, 1652.
   

================================================================================

================================================================================
                                        WARNINGS
                       Please study these warnings very carefully!
================================================================================


WARNING: Geometry Optimization
  ===> : Switching off AutoStart
         For restart on a previous wavefunction, please use MOREAD

WARNING: Found dipole moment calculation with XTB calculation
  ===> : Switching off dipole moment calculation

Environment variable XTBEXE for xtb has been set!

================================================================================
                                       INPUT FILE
================================================================================
NAME = random_d1.70_003_m1.inp
|  1> ! GFN2-xTB TightSCF TightOpt
|  2> 
|  3> %pal
|  4>   nprocs 1
|  5> end
|  6> 
|  7> %maxcore 500
|  8> 
|  9> * xyzfile 0 1 ../../../starts/random_d1.70_003.xyz
| 10> 
| 11>                          ****END OF INPUT****
================================================================================

                       *****************************
                       * Geometry Optimization Run *
                       *****************************

Geometry optimization settings:
Update method            Update   .... BFGS
Choice of coordinates    CoordSys .... (2022) Redundant Internals
Initial Hessian          InHess   .... Almloef's Model
Max. no of cycles        MaxIter  .... 50

Convergence Tolerances:
Energy Change            TolE     ....  1.0000e-06 Eh
Max. Gradient            TolMAXG  ....  1.0000e-04 Eh/bohr
RMS Gradient             TolRMSG  ....  3.0000e-05 Eh/bohr
Max. Displacement        TolMAXD  ....  1.0000e-03 bohr
RMS Displacement         TolRMSD  ....  6.0000e-04 bohr
Strict Convergence                .... False

------------------------------------------------------------------------------
                        ORCA OPTIMIZATION COORDINATE SETUP
------------------------------------------------------------------------------

The optimization will be done in redundant internal coordinates (2022)
Making redundant internal coordinates   ...  (2022 redundants) done
Evaluating the initial hessian          ...  (Almloef) done
Evaluating the coordinates              ...  done
Calculating the B-matrix                .... done
Calculating the G-matrix                .... done
The number of degrees of freedom        ....  137

    -----------------------------------------------------------------
                    Redundant Internal Coordinates


    -----------------------------------------------------------------
         Definition                    Initial Value    Approx d2E/dq
    -----------------------------------------------------------------
      1. B(B   2,B   1)                  1.8569         0.150808   
      2. B(B   2,B   0)                  2.8702         0.010000   
      3. B(B   3,B   1)                  1.6746         0.294677   
      4. B(B   3,B   0)                  2.9383         0.010000   
      5. B(B   5,B   2)                  2.8425         0.010000   
      6. B(B   5,B   4)                  2.9148         0.010000   
      7. B(B   6,B   5)                  1.5579         0.452415   
      8. B(B   7,B   4)                  2.3692         0.022971   
      9. B(B   7,B   6)                  2.8457         0.010000   
     10. B(B   7,B   5)                  2.2325         0.037952   
     11. B(B   7,B   0)                  3.0332         0.010000   
     12. B(B   8,B   4)                  1.1948         1.717157   
     13. B(B   9,B   0)                  1.3639         0.922538   
     14. B(B   9,B   7)                  2.4852         0.014998   
     15. B(B  10,B   5)                  2.4258         0.018658   
     16. B(B  11,B   4)                  1.9958         0.090547   
     17. B(B  11,B   2)                  1.4027         0.799958   
     18. B(B  11,B   8)                  1.2821         1.245837   
     19. A(B   2,B   0,B   9)          120.5163         0.212188   
     20. A(B   3,B   0,B   9)          139.2352         0.205413   
     21. A(B   7,B   0,B   9)           53.8212         0.196577   
     22. A(B   3,B   0,B   7)          102.3322         0.118055   
     23. A(B   2,B   0,B   7)           67.0386         0.119746   
     24. A(B   2,B   0,B   3)           45.9550         0.122271   
     25. A(B   2,B   1,B   3)           79.7457         0.309951   
     26. A(B   0,B   2,B   1)           99.2735         0.170760   
     27. A(B   1,B   2,B   5)          129.7460         0.172665   
     28. A(B   1,B   2,B  11)          119.9307         0.365990   
     29. A(B   0,B   2,B  11)          131.3937         0.208276   
     30. A(B   0,B   2,B   5)           72.9368         0.125028   
     31. A(B   5,B   2,B  11)           98.4676         0.211056   
     32. A(B   0,B   3,B   1)          101.5274         0.178912   
     33. A(B   8,B   4,B  11)           37.8295         0.382362   
     34. A(B   7,B   4,B  11)          100.9727         0.199492   
     35. A(B   5,B   4,B   7)           48.6471         0.140459   
     36. A(B   7,B   4,B   8)          131.7464         0.304068   
     37. A(B   5,B   4,B  11)           83.7951         0.159192   
     38. A(B   5,B   4,B   8)          120.3058         0.225626   
     39. A(B   4,B   5,B  10)           90.3256         0.138093   
     40. A(B   2,B   5,B   7)           79.0168         0.150224   
     41. A(B   2,B   5,B  10)           88.1869         0.141135   
     42. A(B   2,B   5,B   6)          136.8663         0.196283   
     43. A(B   6,B   5,B   7)           95.6685         0.267164   
     44. A(B   7,B   5,B  10)          142.4955         0.175580   
     45. A(B   2,B   5,B   4)           59.5077         0.123716   
     46. A(B   4,B   5,B   7)           52.8075         0.146652   
     47. A(B   4,B   5,B   6)          145.0254         0.190024   
     48. A(B   6,B   5,B  10)          116.8774         0.240714   
     49. A(B   5,B   6,B   7)           51.3225         0.196000   
     50. A(B   6,B   7,B   9)           73.2381         0.138490   
     51. A(B   0,B   7,B   5)           78.6984         0.141248   
     52. A(B   5,B   7,B   9)           89.9625         0.171404   
     53. A(B   4,B   7,B   6)          110.1909         0.143503   
     54. A(B   4,B   7,B   5)           78.5454         0.179752   
     55. A(B   0,B   7,B   4)          111.1450         0.135636   
     56. A(B   4,B   7,B   9)          137.2056         0.162552   
     57. A(B   0,B   7,B   9)           26.2948         0.131346   
     58. A(B   5,B   7,B   6)           33.0090         0.150063   
     59. A(B   0,B   7,B   6)           76.2030         0.120379   
     60. A(B   4,B   8,B  11)          107.3132         0.620018   
     61. A(B   0,B   9,B   7)           99.8839         0.258667   
     62. A(B   4,B  11,B   8)           34.8572         0.361812   
     63. A(B   2,B  11,B   8)          147.8460         0.535708   
     64. A(B   2,B  11,B   4)          113.3239         0.335785   
     65. D(B   1,B   2,B   0,B   9)    166.4956         0.010000   
     66. D(B   1,B   2,B   0,B   7)    172.8212         0.010000   
     67. D(B   1,B   2,B   0,B   3)     35.7254         0.010000   
     68. D(B  11,B   2,B   0,B   7)    -42.3102         0.010000   
     69. D(B  11,B   2,B   1,B   3)    161.4264         0.010000   
     70. D(B   0,B   2,B   1,B   3)    -48.4501         0.010000   
     71. D(B   5,B   2,B   1,B   3)     27.0192         0.010000   
     72. D(B  11,B   2,B   0,B   9)    -48.6358         0.010000   
     73. D(B  11,B   2,B   0,B   3)   -179.4060         0.010000   
     74. D(B   1,B   3,B   0,B   9)   -128.4130         0.010000   
     75. D(B   1,B   3,B   0,B   7)    -80.6201         0.010000   
     76. D(B   0,B   3,B   1,B   2)     47.4212         0.010000   
     77. D(B   1,B   3,B   0,B   2)    -40.7058         0.010000   
     78. D(B   6,B   5,B   2,B  11)    155.1912         0.010000   
     79. D(B   6,B   5,B   2,B   1)    -63.5592         0.010000   
     80. D(B   2,B   5,B   4,B   8)    -21.1144         0.010000   
     81. D(B   7,B   5,B   4,B   8)   -120.8615         0.010000   
     82. D(B   6,B   5,B   4,B   8)   -150.5832         0.010000   
     83. D(B   6,B   5,B   4,B   7)    -29.7218         0.010000   
     84. D(B   4,B   5,B   2,B   1)    156.7728         0.010000   
     85. D(B   6,B   5,B   4,B  11)   -140.2552         0.010000   
     86. D(B   7,B   5,B   2,B   0)    -62.1834         0.010000   
     87. D(B   7,B   5,B   4,B  11)   -110.5334         0.010000   
     88. D(B   7,B   5,B   2,B  11)     68.6304         0.010000   
     89. D(B   7,B   5,B   2,B   1)   -150.1201         0.010000   
     90. D(B   6,B   5,B   2,B   0)     24.3774         0.010000   
     91. D(B   2,B   5,B   4,B  11)    -10.7864         0.010000   
     92. D(B   7,B   6,B   5,B  10)    160.7444         0.010490   
     93. D(B   7,B   6,B   5,B   4)     23.3840         0.010490   
     94. D(B   7,B   6,B   5,B   2)    -79.9745         0.010490   
     95. D(B   9,B   7,B   0,B   2)   -173.2469         0.010000   
     96. D(B   0,B   7,B   6,B   5)     90.4347         0.010000   
     97. D(B   9,B   7,B   6,B   5)    117.5408         0.010000   
     98. D(B   0,B   7,B   5,B  10)    126.8695         0.010000   
     99. D(B   0,B   7,B   5,B   4)    114.5718         0.010000   
    100. D(B   0,B   7,B   5,B   2)     54.6771         0.010000   
    101. D(B   0,B   7,B   5,B   6)    -82.0223         0.010000   
    102. D(B   9,B   7,B   5,B  10)    150.7878         0.010000   
    103. D(B   9,B   7,B   5,B   2)     78.5955         0.010000   
    104. D(B   9,B   7,B   5,B   6)    -58.1040         0.010000   
    105. D(B   5,B   7,B   4,B   8)     96.6339         0.010000   
    106. D(B   0,B   7,B   4,B   5)    -72.9766         0.010000   
    107. D(B   0,B   7,B   4,B  11)     -1.4775         0.010000   
    108. D(B   0,B   7,B   4,B   8)     23.6572         0.010000   
    109. D(B   9,B   7,B   4,B   5)    -77.3002         0.010000   
    110. D(B   9,B   7,B   5,B   4)    138.4901         0.010000   
    111. D(B   9,B   7,B   4,B  11)     -5.8011         0.010000   
    112. D(B   9,B   7,B   4,B   8)     19.3337         0.010000   
    113. D(B   6,B   7,B   0,B   2)    -93.2312         0.010000   
    114. D(B   6,B   7,B   0,B   9)     80.0157         0.010000   
    115. D(B   5,B   7,B   0,B   3)    -29.4250         0.010000   
    116. D(B   5,B   7,B   0,B   2)    -59.4842         0.010000   
    117. D(B   5,B   7,B   0,B   9)    113.7628         0.010000   
    118. D(B   4,B   7,B   6,B   5)    -17.3512         0.010000   
    119. D(B   9,B   7,B   0,B   3)   -143.1878         0.010000   
    120. D(B  11,B   8,B   4,B   5)     16.8943         0.169689   
    121. D(B  11,B   8,B   4,B   7)    -42.8347         0.169689   
    122. D(B   0,B   9,B   7,B   4)      9.1328         0.010000   
    123. D(B   0,B   9,B   7,B   6)    -92.7122         0.010000   
    124. D(B   0,B   9,B   7,B   5)    -63.8281         0.010000   
    125. D(B   7,B   9,B   0,B   3)     63.7006         0.041333   
    126. D(B   7,B   9,B   0,B   2)      7.2202         0.041333   
    127. D(B   4,B  11,B   2,B   1)   -167.7837         0.033042   
    128. D(B   2,B  11,B   8,B   4)     10.7904         0.072918   
    129. D(B   8,B  11,B   4,B   5)   -165.3821         0.010000   
    130. D(B   8,B  11,B   4,B   7)    148.8883         0.010000   
    131. D(B   2,B  11,B   4,B   5)     20.8469         0.010000   
    132. D(B   2,B  11,B   4,B   7)    -24.8827         0.010000   
    133. D(B   2,B  11,B   4,B   8)   -173.7710         0.010000   
    134. D(B   8,B  11,B   2,B   5)    -28.2089         0.033042   
    135. D(B   8,B  11,B   2,B   1)   -174.4752         0.033042   
    136. D(B   4,B  11,B   2,B   0)     53.1614         0.033042   
    137. D(B   4,B  11,B   2,B   5)    -21.5175         0.033042   
    -----------------------------------------------------------------

Number of atoms                         .... 12
Number of degrees of freedom            .... 137


         *************************************************************
         *                GEOMETRY OPTIMIZATION CYCLE   1            *
         *************************************************************
---------------------------------
CARTESIAN COORDINATES (ANGSTROEM)
---------------------------------
  B    -2.299771   -0.435106    0.951751
  B    -0.203065    2.492222    1.614088
  B     0.284645    0.812916    0.989398
  B    -1.336757    2.285295    0.399124
  B     2.020609   -1.319421    0.210143
  B    -0.049962   -0.334593   -1.589592
  B    -1.241504   -0.739622   -2.507828
  B    -0.137038   -2.154634   -0.299675
  B     2.417501   -0.634281    1.104904
  B    -2.488730   -1.616870    0.297532
  B     1.476231    1.343343   -2.449601
  B     1.557839    0.300750    1.279755

----------------------------
CARTESIAN COORDINATES (A.U.)
----------------------------
  NO LB    ZA    FRAG    MASS        X           Y           Z
   0 B   5.0000    0    10.810   -4.345938   -0.822230    1.798549
   1 B   5.0000    0    10.810   -0.383737    4.709618    3.050184
   2 B   5.0000    0    10.810    0.537900    1.536189    1.869691
   3 B   5.0000    0    10.810   -2.526105    4.318582    0.754235
   4 B   5.0000    0    10.810    3.818398   -2.493345    0.397113
   5 B   5.0000    0    10.810   -0.094414   -0.632289   -3.003893
   6 B   5.0000    0    10.810   -2.346102   -1.397684   -4.739108
   7 B   5.0000    0    10.810   -0.258963   -4.071667   -0.566303
   8 B   5.0000    0    10.810    4.568415   -1.198618    2.087966
   9 B   5.0000    0    10.810   -4.703018   -3.055441    0.562254
  10 B   5.0000    0    10.810    2.789673    2.538549   -4.629075
  11 B   5.0000    0    10.810    2.943889    0.568336    2.418386

      -----------------------------------------------------------      
     |                   =====================                   |     
     |                           x T B                           |     
     |                   =====================                   |     
     |                         S. Grimme                         |     
     |          Mulliken Center for Theoretical Chemistry        |     
     |                    University of Bonn                     |     
      -----------------------------------------------------------      

   * xtb version 6.6.1 (unknown) compiled by 'builduser@buildhost' on 2023-08-07

   xtb is free software: you can redistribute it and/or modify it under
   the terms of the GNU Lesser General Public License as published by
   the Free Software Foundation, either version 3 of the License, or
   (at your option) any later version.
   
   xtb is distributed in the hope that it will be useful,
   but WITHOUT ANY WARRANTY; without even the implied warranty of
   MERCHANTABILITY or FITNESS FOR A PARTICULAR PURPOSE.  See the
   GNU Lesser General Public License for more details.
   
   Cite this work as:
   * C. Bannwarth, E. Caldeweyher, S. Ehlert, A. Hansen, P. Pracht,
     J. Seibert, S. Spicher, S. Grimme, WIREs Comput. Mol. Sci., 2020, 11,
     e01493. DOI: 10.1002/wcms.1493
   
   for GFN2-xTB:
   * C. Bannwarth, S. Ehlert and S. Grimme., J. Chem. Theory Comput., 2019,
     15, 1652-1671. DOI: 10.1021/acs.jctc.8b01176
   for GFN1-xTB:
   * S. Grimme, C. Bannwarth, P. Shushkov, J. Chem. Theory Comput., 2017,
     13, 1989-2009. DOI: 10.1021/acs.jctc.7b00118
   for GFN0-xTB:
   * P. Pracht, E. Caldeweyher, S. Ehlert, S. Grimme, ChemRxiv, 2019, preprint.
     DOI: 10.26434/chemrxiv.8326202.v1
   for GFN-FF:
   * S. Spicher and S. Grimme, Angew. Chem. Int. Ed., 2020, 59, 15665-15673.
     DOI: 10.1002/anie.202004239
   
   for ALPB and GBSA implicit solvation:
   * S. Ehlert, M. Stahn, S. Spicher, S. Grimme, J. Chem. Theory Comput.,
     2021, 17, 4250-4261. DOI: 10.1021/acs.jctc.1c00471
   
   for DFT-D4:
   * E. Caldeweyher, C. Bannwarth and S. Grimme, J. Chem. Phys., 2017,
     147, 034112. DOI: 10.1063/1.4993215
   * E. Caldeweyher, S. Ehlert, A. Hansen, H. Neugebauer, S. Spicher,
     C. Bannwarth and S. Grimme, J. Chem. Phys., 2019, 150, 154122.
     DOI: 10.1063/1.5090222
   * E. Caldeweyher, J.-M. Mewes, S. Ehlert and S. Grimme, Phys. Chem. Chem. Phys.
     2020, 22, 8499-8512. DOI: 10.1039/D0CP00502A
   
   for sTDA-xTB:
   * S. Grimme and C. Bannwarth, J. Chem. Phys., 2016, 145, 054103.
     DOI: 10.1063/1.4959605
   
   in the mass-spec context:
   * V. Asgeirsson, C. Bauer and S. Grimme, Chem. Sci., 2017, 8, 4879.
     DOI: 10.1039/c7sc00601b
   * J. Koopman and S. Grimme, ACS Omega 2019, 4, 12, 15120-15133.
     DOI: 10.1021/acsomega.9b02011
   
   for metadynamics refer to:
   * S. Grimme, J. Chem. Theory Comput., 2019, 155, 2847-2862
     DOI: 10.1021/acs.jctc.9b00143
   
   for SPH calculations refer to:
   * S. Spicher and S. Grimme, J. Chem. Theory Comput., 2021, 17, 1701-1714
     DOI: 10.1021/acs.jctc.0c01306
   
   with help from (in alphabetical order)
   P. Atkinson, C. Bannwarth, F. Bohle, G. Brandenburg, E. Caldeweyher
   M. Checinski, S. Dohm, S. Ehlert, S. Ehrlich, I. Gerasimov, C. Hölzer
   A. Katbashev, J. Koopman, C. Lavigne, S. Lehtola, F. März, M. Müller,
   F. Musil, H. Neugebauer, J. Pisarek, C. Plett, P. Pracht, F. Pultar,
   J. Seibert, P. Shushkov, S. Spicher, M. Stahn, M. Steiner, T. Strunk,
   J. Stückrath, T. Rose, and J. Unsleber
   
 * started run on 2026/04/17 at 12:14:06.730     

           -------------------------------------------------
          |                Calculation Setup                |
           -------------------------------------------------

          program call               : /usr/bin/xtb random_d1.70_003_m1_XTB.xyz --grad -c 0 -u 0 -P 1 --namespace random_d1.70_003_m1 --input random_d1.70_003_m1_XTB.input.tmp --acc 0.200000
          calculation namespace      : random_d1.70_003_m1
          coordinate file            : random_d1.70_003_m1_XTB.xyz
          omp threads                :                     1

   ID    Z sym.   atoms
    1    5 B      1-12

molecular fragmentation (1/2 indicates fragments):
122222222122
# atoms in fragment 1/2:     2    10
 fragment masses (1/2) :       21.62      108.11
CMA distance (Bohr)    :   6.074
constraining FC (au)   :  0.0500

           -------------------------------------------------
          |                 G F N 2 - x T B                 |
           -------------------------------------------------

        Reference                      10.1021/acs.jctc.8b01176
      * Hamiltonian:
        H0-scaling (s, p, d)           1.850000    2.230000    2.230000
        zeta-weighting                 0.500000
      * Dispersion:
        s8                             2.700000
        a1                             0.520000
        a2                             5.000000
        s9                             5.000000
      * Repulsion:
        kExp                           1.500000    1.000000
        rExp                           1.000000
      * Coulomb:
        alpha                          2.000000
        third order                    shell-resolved
        anisotropic                    true
        a3                             3.000000
        a5                             4.000000
        cn-shift                       1.200000
        cn-exp                         4.000000
        max-rad                        5.000000


          ...................................................
          :                      SETUP                      :
          :.................................................:
          :  # basis functions                  48          :
          :  # atomic orbitals                  48          :
          :  # shells                           24          :
          :  # electrons                        36          :
          :  max. iterations                   250          :
          :  Hamiltonian                  GFN2-xTB          :
          :  restarted?                      false          :
          :  GBSA solvation                  false          :
          :  PC potential                    false          :
          :  electronic temp.          300.0000000     K    :
          :  accuracy                    0.2000000          :
          :  -> integral cutoff          0.3198970E+02      :
          :  -> integral neglect         0.2000000E-08      :
          :  -> SCF convergence          0.2000000E-06 Eh   :
          :  -> wf. convergence          0.2000000E-04 e    :
          :  Broyden damping             0.4000000          :
          ...................................................

 iter      E             dE          RMSdq      gap      omega  full diag
   1    -13.4529974 -0.134530E+02  0.203E+01    0.06       0.0  T
   2     -4.3174661  0.913553E+01  0.198E+01    0.34       1.0  T
   3     15.8221792  0.201396E+02  0.298E+01    0.51       1.0  T
   4     -0.7789793 -0.166012E+02  0.215E+01    0.08       1.0  T
   5     -4.4029433 -0.362396E+01  0.165E+01    0.33       1.0  T
   6     -5.9671779 -0.156423E+01  0.142E+01    0.08       1.0  T
   7     -9.0109635 -0.304379E+01  0.121E+01    0.18       1.0  T
   8    -11.7437541 -0.273279E+01  0.980E+00    0.09       1.0  T
   9    -12.3703669 -0.626613E+00  0.820E+00    0.08       1.0  T
  10    -12.7993577 -0.428991E+00  0.757E+00    0.34       1.0  T
  11    -12.9765348 -0.177177E+00  0.667E+00    0.25       1.0  T
  12    -13.1984720 -0.221937E+00  0.607E+00    0.22       1.0  T
  13    -13.2021937 -0.372175E-02  0.591E+00    0.22       1.0  T
  14    -13.1435806  0.586131E-01  0.575E+00    0.25       1.0  T
  15    -13.5867295 -0.443149E+00  0.460E+00    0.25       1.0  T
  16    -13.6011933 -0.144638E-01  0.377E+00    0.24       1.0  T
  17    -13.6025347 -0.134139E-02  0.380E+00    0.24       1.0  T
  18    -13.5817493  0.207853E-01  0.361E+00    0.23       1.0  T
  19    -13.6588017 -0.770523E-01  0.260E+00    0.23       1.0  T
  20    -13.7077985 -0.489969E-01  0.202E+00    0.23       1.0  T
  21    -13.6977745  0.100240E-01  0.183E+00    0.23       1.0  T
  22    -13.7163634 -0.185889E-01  0.135E+00    0.24       1.0  T
  23    -13.7192313 -0.286792E-02  0.109E+00    0.24       1.0  T
  24    -13.7165041  0.272718E-02  0.106E+00    0.25       1.0  T
  25    -13.7221543 -0.565016E-02  0.703E-01    0.24       1.0  T
  26    -13.7230859 -0.931635E-03  0.582E-01    0.24       1.0  T
  27    -13.7244217 -0.133573E-02  0.335E-01    0.25       1.0  T
  28    -13.7242851  0.136567E-03  0.348E-01    0.25       1.0  T
  29    -13.7248326 -0.547482E-03  0.146E-01    0.25       1.0  T
  30    -13.7247707  0.618596E-04  0.139E-01    0.25       1.0  T
  31    -13.7248519 -0.811612E-04  0.113E-01    0.25       1.0  T
  32    -13.7249510 -0.991303E-04  0.734E-02    0.25       1.0  T
  33    -13.7249759 -0.249111E-04  0.624E-02    0.25       1.0  T
  34    -13.7249773 -0.140528E-05  0.546E-02    0.25       1.0  T
  35    -13.7249884 -0.110998E-04  0.440E-02    0.25       1.0  T
  36    -13.7249962 -0.777411E-05  0.347E-02    0.25       1.0  T
  37    -13.7250041 -0.789408E-05  0.237E-02    0.25       1.2  T
  38    -13.7250070 -0.287479E-05  0.155E-02    0.25       1.9  T
  39    -13.7250082 -0.125326E-05  0.850E-03    0.25       3.4  T
  40    -13.7250086 -0.346730E-06  0.453E-03    0.25       6.4  T
  41    -13.7250085  0.563826E-07  0.498E-03    0.25       5.8  T
  42    -13.7250086 -0.827423E-07  0.398E-03    0.25       7.2  T
  43    -13.7250088 -0.153333E-06  0.146E-03    0.25      19.8  T
  44    -13.7250088 -0.109092E-07  0.829E-04    0.25      34.8  T
  45    -13.7250088 -0.884624E-08  0.245E-04    0.25     117.8  T
  46    -13.7250088  0.666489E-10  0.200E-04    0.25     144.3  T
  47    -13.7250088 -0.495394E-09  0.901E-05    0.25     320.3  T
  48    -13.7250088 -0.113133E-09  0.292E-05    0.25     990.1  T

   *** convergence criteria satisfied after 48 iterations ***

         #    Occupation            Energy/Eh            Energy/eV
      -------------------------------------------------------------
         1        2.0000           -0.4100949             -11.1592
       ...           ...                  ...                  ...
        12        2.0000           -0.2829439              -7.6993
        13        2.0000           -0.2726725              -7.4198
        14        2.0000           -0.2695815              -7.3357
        15        2.0000           -0.2625746              -7.1450
        16        2.0000           -0.2572669              -7.0006
        17        1.9993           -0.2536934              -6.9033
        18        1.9837           -0.2507307              -6.8227 (HOMO)
        19        0.0170           -0.2416468              -6.5755 (LUMO)
        20                         -0.2299779              -6.2580
        21                         -0.2216605              -6.0317
        22                         -0.2199351              -5.9847
        23                         -0.2192220              -5.9653
       ...                                ...                  ...
        48                          3.9670878             107.9500
      -------------------------------------------------------------
                  HL-Gap            0.0090839 Eh            0.2472 eV
             Fermi-level           -0.2461674 Eh           -6.6986 eV

 SCC (total)                   0 d,  0 h,  0 min,  0.061 sec
 SCC setup                      ...        0 min,  0.000 sec (  0.346%)
 Dispersion                     ...        0 min,  0.000 sec (  0.308%)
 classical contributions        ...        0 min,  0.000 sec (  0.061%)
 integral evaluation            ...        0 min,  0.003 sec (  5.668%)
 iterations                     ...        0 min,  0.052 sec ( 85.771%)
 molecular gradient             ...        0 min,  0.005 sec (  7.459%)
 printout                       ...        0 min,  0.000 sec (  0.343%)

         :::::::::::::::::::::::::::::::::::::::::::::::::::::
         ::                     SUMMARY                     ::
         :::::::::::::::::::::::::::::::::::::::::::::::::::::
         :: total energy             -13.241352862714 Eh    ::
         :: gradient norm              1.013018142954 Eh/a0 ::
         :: HOMO-LUMO gap              0.247185649881 eV    ::
         ::.................................................::
         :: SCC energy               -13.725008770844 Eh    ::
         :: -> isotropic ES            0.075240911063 Eh    ::
         :: -> anisotropic ES          0.000960264074 Eh    ::
         :: -> anisotropic XC         -0.039659087927 Eh    ::
         :: -> dispersion             -0.021839013375 Eh    ::
         :: repulsion energy           0.483503170780 Eh    ::
         :: add. restraining           0.000000000000 Eh    ::
         :: total charge              -0.000000000000 e     ::
         :::::::::::::::::::::::::::::::::::::::::::::::::::::


Property printout bound to 'properties.out'

           -------------------------------------------------
          | TOTAL ENERGY              -13.241352862714 Eh   |
          | GRADIENT NORM               1.013018142954 Eh/α |
          | HOMO-LUMO GAP               0.247185649881 eV   |
           -------------------------------------------------

------------------------------------------------------------------------
 * finished run on 2026/04/17 at 12:14:06.807     
------------------------------------------------------------------------
 total:
 * wall-time:     0 d,  0 h,  0 min,  0.076 sec
 *  cpu-time:     0 d,  0 h,  0 min,  0.075 sec
 * ratio c/w:     0.983 speedup
 SCF:
 * wall-time:     0 d,  0 h,  0 min,  0.061 sec
 *  cpu-time:     0 d,  0 h,  0 min,  0.060 sec
 * ratio c/w:     0.981 speedup


-------------------------   --------------------
FINAL SINGLE POINT ENERGY       -13.241352862710
-------------------------   --------------------


-------------
DIPOLE MOMENT
-------------
                                X             Y             Z
Total Dipole Moment    :     -1.24700      -0.84100      -0.07800
                        -----------------------------------------
Magnitude (a.u.)       :      1.50611
Magnitude (Debye)      :      3.82823


------------------
CARTESIAN GRADIENT
------------------

   1   B   :   -0.028585546   -0.096234396   -0.030070214
   2   B   :    0.060630703    0.061410679    0.094231716
   3   B   :    0.140060831   -0.126283754   -0.001605700
   4   B   :   -0.074540307    0.023151489   -0.081067703
   5   B   :    0.262559405    0.395860921    0.479395934
   6   B   :    0.023217851    0.009040934    0.043796787
   7   B   :   -0.055487723   -0.014739868   -0.055831869
   8   B   :   -0.003624863   -0.070026170    0.014124529
   9   B   :   -0.459954726   -0.116743706   -0.427536854
  10   B   :   -0.032551354    0.086156627    0.049342175
  11   B   :    0.034939101    0.041098431   -0.022041689
  12   B   :    0.133336628   -0.192691187   -0.062737111

Difference to translation invariance:
           :   -0.0000000000    0.0000000000   -0.0000000000

Difference to rotation invariance:
           :    0.0000000012    0.0000000266    0.0000000009

Norm of the Cartesian gradient     ...    1.0130181430
RMS gradient                       ...    0.1688363572
MAX gradient                       ...    0.4793959341
------------------------------------------------------------------------------
                         ORCA GEOMETRY RELAXATION STEP
------------------------------------------------------------------------------

Reading the OPT-File                    .... done
Getting information on internals        .... done
Copying old internal coords+grads       .... done
Making the new internal coordinates     .... (2022 redundants) done
Validating the new internal coordinates .... (2022 redundants) done
Calculating the B-matrix                .... done
Calculating the G,G- and P matrices     .... done
Transforming gradient to internals      .... done
Projecting the internal gradient        .... done
Number of atoms                         ....  12
Number of internal coordinates          .... 137
Current Energy                          ....   -13.241352863 Eh
Current gradient norm                   ....     1.013018143 Eh/bohr
Maximum allowed component of the step   ....  0.300
Current trust radius                    ....  0.300
Evaluating the initial hessian          ....  (Almloef) done
Projecting the Hessian                  .... done
Forming the augmented Hessian           .... done
Diagonalizing the augmented Hessian     .... done
Last element of RFO vector              ....  0.862529207
Lowest eigenvalues of augmented Hessian:
 -0.317712872  0.015670347  0.017929188  0.018569931  0.019828675
Length of the computed step             ....  0.586655241
Warning: the length of the step is outside the trust region - taking restricted step instead
The input lambda is                     ....     0.013610
   iter:   5  x=    0.004843  g=26536.778098 f(x)=    98.878527
   iter:  10  x=   -0.099100  g=   45.293058 f(x)=     2.093661
   iter:  15  x=   -1.085861  g=    0.151695 f(x)=     0.029203
   iter:  20  x=   -1.135180  g=    0.095966 f(x)=     0.000000
The output lambda is                    ....    -1.135180 (20 iterations)
The final length of the internal step   ....  0.300000000
Converting the step to Cartesian space:
 Initial RMS(Int)=    0.0256307297
Transforming coordinates:
 Iter   0:  RMS(Cart)=    0.0359176794 RMS(Int)=    0.0255670093
done
Storing new coordinates                 .... done

                                .--------------------.
          ----------------------|Geometry convergence|-------------------------
          Item                value                   Tolerance       Converged
          ---------------------------------------------------------------------
          RMS gradient        0.0523982743            0.0000300000      NO
          MAX gradient        0.4289674007            0.0001000000      NO
          RMS step            0.0256307297            0.0006000000      NO
          MAX step            0.1780117365            0.0010000000      NO
          -------------------------------------------------------------------------
          ........................................................
          Max(Bonds)      0.0942      Max(Angles)    3.95
          Max(Dihed)        1.04      Max(Improp)    0.00
          ---------------------------------------------------------------------

The optimization has not yet converged - more geometry cycles are needed


    ---------------------------------------------------------------------------
                         Redundant Internal Coordinates
                            (Angstroem and degrees)

        Definition                    Value    dE/dq     Step     New-Value
    ----------------------------------------------------------------------------
     1. B(B   2,B   1)                1.8569  0.064002 -0.0255    1.8314   
     2. B(B   2,B   0)                2.8702  0.036570 -0.0143    2.8559   
     3. B(B   3,B   1)                1.6746  0.099581 -0.0374    1.6372   
     4. B(B   3,B   0)                2.9383  0.026200 -0.0125    2.9257   
     5. B(B   5,B   2)                2.8425 -0.029816  0.0085    2.8510   
     6. B(B   5,B   4)                2.9148 -0.018382  0.0036    2.9184   
     7. B(B   6,B   5)                1.5579  0.045148 -0.0178    1.5401   
     8. B(B   7,B   4)                2.3692  0.044068 -0.0191    2.3501   
     9. B(B   7,B   6)                2.8457  0.048612 -0.0174    2.8283   
    10. B(B   7,B   5)                2.2325  0.014479 -0.0069    2.2255   
    11. B(B   7,B   0)                3.0332 -0.007869 -0.0004    3.0328   
    12. B(B   8,B   4)                1.1948 -0.428967  0.0942    1.2890   
    13. B(B   9,B   0)                1.3639 -0.062668  0.0183    1.3822   
    14. B(B   9,B   7)                2.4852  0.038714 -0.0160    2.4692   
    15. B(B  10,B   5)                2.4258  0.058225 -0.0267    2.3991   
    16. B(B  11,B   4)                1.9958 -0.229080  0.0637    2.0595   
    17. B(B  11,B   2)                1.4027 -0.097045  0.0289    1.4316   
    18. B(B  11,B   8)                1.2821 -0.148774  0.0485    1.3306   
    19. A(B   2,B   0,B   9)          120.52 -0.005203    0.10    120.62   
    20. A(B   3,B   0,B   9)          139.24  0.004901   -0.24    139.00   
    21. A(B   7,B   0,B   9)           53.82  0.013789   -0.53     53.29   
    22. A(B   3,B   0,B   7)          102.33  0.001567   -0.14    102.19   
    23. A(B   2,B   0,B   7)           67.04 -0.019162    0.65     67.69   
    24. A(B   2,B   0,B   3)           45.95  0.018205   -0.75     45.20   
    25. A(B   2,B   1,B   3)           79.75  0.005171   -0.25     79.50   
    26. A(B   0,B   2,B   1)           99.27 -0.009660    0.35     99.62   
    27. A(B   1,B   2,B   5)          129.75  0.002456   -0.03    129.71   
    28. A(B   1,B   2,B  11)          119.93  0.003299    0.10    120.03   
    29. A(B   0,B   2,B  11)          131.39  0.008323   -0.47    130.93   
    30. A(B   0,B   2,B   5)           72.94  0.006457   -0.23     72.70   
    31. A(B   5,B   2,B  11)           98.47 -0.007320    0.03     98.50   
    32. A(B   0,B   3,B   1)          101.53 -0.015657    0.63    102.16   
    33. A(B   8,B   4,B  11)           37.83 -0.041036    1.22     39.05   
    34. A(B   7,B   4,B  11)          100.97  0.008583   -0.25    100.72   
    35. A(B   5,B   4,B   7)           48.65  0.003838   -0.13     48.52   
    36. A(B   7,B   4,B   8)          131.75 -0.027555    0.80    132.55   
    37. A(B   5,B   4,B  11)           83.80  0.010287   -0.36     83.44   
    38. A(B   5,B   4,B   8)          120.31 -0.027812    0.79    121.10   
    39. A(B   4,B   5,B  10)           90.33 -0.005351    0.19     90.51   
    40. A(B   2,B   5,B   7)           79.02 -0.016654    0.53     79.55   
    41. A(B   2,B   5,B  10)           88.19  0.008081   -0.28     87.91   
    42. A(B   2,B   5,B   6)          136.87  0.022926   -0.73    136.14   
    43. A(B   6,B   5,B   7)           95.67  0.003592   -0.02     95.65   
    44. A(B   7,B   5,B  10)          142.50  0.005116   -0.26    142.24   
    45. A(B   2,B   5,B   4)           59.51 -0.040474    1.32     60.82   
    46. A(B   4,B   5,B   7)           52.81  0.012900   -0.53     52.28   
    47. A(B   4,B   5,B   6)          145.03  0.019341   -0.63    144.40   
    48. A(B   6,B   5,B  10)          116.88 -0.011296    0.35    117.23   
    49. A(B   5,B   6,B   7)           51.32 -0.007451    0.22     51.54   
    50. A(B   6,B   7,B   9)           73.24  0.009652   -0.32     72.92   
    51. A(B   0,B   7,B   5)           78.70  0.008503   -0.27     78.43   
    52. A(B   5,B   7,B   9)           89.96  0.002081   -0.11     89.86   
    53. A(B   4,B   7,B   6)          110.19 -0.010832    0.40    110.59   
    54. A(B   4,B   7,B   5)           78.55 -0.016738    0.66     79.20   
    55. A(B   0,B   7,B   4)          111.14 -0.023561    0.77    111.91   
    56. A(B   4,B   7,B   9)          137.21 -0.033820    1.11    138.31   
    57. A(B   0,B   7,B   9)           26.29 -0.011105    0.37     26.66   
    58. A(B   5,B   7,B   6)           33.01  0.003858   -0.20     32.81   
    59. A(B   0,B   7,B   6)           76.20  0.012666   -0.39     75.81   
    60. A(B   4,B   8,B  11)          107.31  0.167405   -3.95    103.37   
    61. A(B   0,B   9,B   7)           99.88 -0.002684    0.16    100.05   
    62. A(B   4,B  11,B   8)           34.86 -0.126369    2.73     37.59   
    63. A(B   2,B  11,B   8)          147.85 -0.088079    1.72    149.56   
    64. A(B   2,B  11,B   4)          113.32  0.037762   -1.00    112.32   
    65. D(B   1,B   2,B   0,B   9)    166.50  0.016029   -0.56    165.94   
    66. D(B   1,B   2,B   0,B   7)    172.82  0.015301   -0.48    172.34   
    67. D(B   1,B   2,B   0,B   3)     35.73  0.006219   -0.19     35.53   
    68. D(B  11,B   2,B   0,B   7)    -42.31  0.017760   -0.37    -42.68   
    69. D(B  11,B   2,B   1,B   3)    161.43 -0.003516    0.09    161.51   
    70. D(B   0,B   2,B   1,B   3)    -48.45  0.001614   -0.10    -48.55   
    71. D(B   5,B   2,B   1,B   3)     27.02  0.002013   -0.11     26.91   
    72. D(B  11,B   2,B   0,B   9)    -48.64  0.018488   -0.45    -49.09   
    73. D(B  11,B   2,B   0,B   3)   -179.41  0.008677   -0.08   -179.49   
    74. D(B   1,B   3,B   0,B   9)   -128.41 -0.001976    0.21   -128.20   
    75. D(B   1,B   3,B   0,B   7)    -80.62  0.020013   -0.72    -81.34   
    76. D(B   0,B   3,B   1,B   2)     47.42 -0.001113    0.13     47.55   
    77. D(B   1,B   3,B   0,B   2)    -40.71  0.005333   -0.26    -40.96   
    78. D(B   6,B   5,B   2,B  11)    155.19 -0.010435    0.30    155.50   
    79. D(B   6,B   5,B   2,B   1)    -63.56 -0.012382    0.50    -63.05   
    80. D(B   2,B   5,B   4,B   8)    -21.11  0.019260   -0.52    -21.63   
    81. D(B   7,B   5,B   4,B   8)   -120.86  0.017558   -0.52   -121.38   
    82. D(B   6,B   5,B   4,B   8)   -150.58  0.025462   -0.75   -151.33   
    83. D(B   6,B   5,B   4,B   7)    -29.72  0.007903   -0.23    -29.95   
    84. D(B   4,B   5,B   2,B   1)    156.77 -0.010745    0.44    157.22   
    85. D(B   6,B   5,B   4,B  11)   -140.26  0.007644   -0.28   -140.54   
    86. D(B   7,B   5,B   2,B   0)    -62.18 -0.002151    0.06    -62.12   
    87. D(B   7,B   5,B   4,B  11)   -110.53 -0.000259   -0.05   -110.59   
    88. D(B   7,B   5,B   2,B  11)     68.63  0.008160   -0.43     68.20   
    89. D(B   7,B   5,B   2,B   1)   -150.12  0.006212   -0.23   -150.35   
    90. D(B   6,B   5,B   2,B   0)     24.38 -0.020745    0.79     25.17   
    91. D(B   2,B   5,B   4,B  11)    -10.79  0.001443   -0.05    -10.84   
    92. D(B   7,B   6,B   5,B  10)    160.74 -0.002607    0.04    160.78   
    93. D(B   7,B   6,B   5,B   4)     23.38 -0.001599   -0.00     23.38   
    94. D(B   7,B   6,B   5,B   2)    -79.97  0.022587   -0.82    -80.79   
    95. D(B   9,B   7,B   0,B   2)   -173.25 -0.001609    0.13   -173.12   
    96. D(B   0,B   7,B   6,B   5)     90.43 -0.004753    0.16     90.59   
    97. D(B   9,B   7,B   6,B   5)    117.54 -0.018181    0.60    118.14   
    98. D(B   0,B   7,B   5,B  10)    126.87  0.000631   -0.04    126.83   
    99. D(B   0,B   7,B   5,B   4)    114.57 -0.022584    0.70    115.27   
   100. D(B   0,B   7,B   5,B   2)     54.68  0.013452   -0.46     54.22   
   101. D(B   0,B   7,B   5,B   6)    -82.02 -0.010325    0.31    -81.71   
   102. D(B   9,B   7,B   5,B  10)    150.79 -0.008947    0.31    151.09   
   103. D(B   9,B   7,B   5,B   2)     78.60  0.003874   -0.12     78.48   
   104. D(B   9,B   7,B   5,B   6)    -58.10 -0.019903    0.65    -57.45   
   105. D(B   5,B   7,B   4,B   8)     96.63 -0.018550    0.49     97.13   
   106. D(B   0,B   7,B   4,B   5)    -72.98 -0.009514    0.25    -72.73   
   107. D(B   0,B   7,B   4,B  11)     -1.48 -0.001489   -0.07     -1.55   
   108. D(B   0,B   7,B   4,B   8)     23.66 -0.028064    0.74     24.40   
   109. D(B   9,B   7,B   4,B   5)    -77.30  0.000836   -0.09    -77.39   
   110. D(B   9,B   7,B   5,B   4)    138.49 -0.032162    1.04    139.53   
   111. D(B   9,B   7,B   4,B  11)     -5.80  0.008862   -0.41     -6.22   
   112. D(B   9,B   7,B   4,B   8)     19.33 -0.017714    0.40     19.73   
   113. D(B   6,B   7,B   0,B   2)    -93.23 -0.006464    0.24    -92.99   
   114. D(B   6,B   7,B   0,B   9)     80.02 -0.004855    0.11     80.13   
   115. D(B   5,B   7,B   0,B   3)    -29.42  0.001126   -0.19    -29.61   
   116. D(B   5,B   7,B   0,B   2)    -59.48 -0.003607    0.07    -59.41   
   117. D(B   5,B   7,B   0,B   9)    113.76 -0.001998   -0.05    113.71   
   118. D(B   4,B   7,B   6,B   5)    -17.35  0.015157   -0.49    -17.84   
   119. D(B   9,B   7,B   0,B   3)   -143.19  0.003124   -0.14   -143.32   
   120. D(B  11,B   8,B   4,B   5)     16.89 -0.013305    0.29     17.19   
   121. D(B  11,B   8,B   4,B   7)    -42.83  0.005062   -0.20    -43.04   
   122. D(B   0,B   9,B   7,B   4)      9.13 -0.016931    0.57      9.70   
   123. D(B   0,B   9,B   7,B   6)    -92.71 -0.013752    0.40    -92.31   
   124. D(B   0,B   9,B   7,B   5)    -63.83 -0.005245    0.06    -63.77   
   125. D(B   7,B   9,B   0,B   3)     63.70  0.019257   -0.85     62.85   
   126. D(B   7,B   9,B   0,B   2)      7.22 -0.003138    0.18      7.40   
   127. D(B   4,B  11,B   2,B   1)   -167.78 -0.005642    0.10   -167.68   
   128. D(B   2,B  11,B   8,B   4)     10.79 -0.006154    0.09     10.88   
   129. D(B   8,B  11,B   4,B   5)   -165.38 -0.007478    0.14   -165.24   
   130. D(B   8,B  11,B   4,B   7)    148.89 -0.012550    0.33    149.22   
   131. D(B   2,B  11,B   4,B   5)     20.85  0.006068   -0.16     20.69   
   132. D(B   2,B  11,B   4,B   7)    -24.88  0.000996    0.03    -24.85   
   133. D(B   2,B  11,B   4,B   8)   -173.77  0.013546   -0.30   -174.07   
   134. D(B   8,B  11,B   2,B   5)    -28.21  0.015998   -0.25    -28.46   
   135. D(B   8,B  11,B   2,B   1)   -174.48  0.017522   -0.36   -174.83   
   136. D(B   4,B  11,B   2,B   0)     53.16 -0.005657   -0.03     53.13   
   137. D(B   4,B  11,B   2,B   5)    -21.52 -0.007167    0.21    -21.30   
    ----------------------------------------------------------------------------

Geometry step timings:
Preparation and reading OPT file:      0.000 s ( 0.526 %)
Internal coordinates            :      0.000 s ( 0.906 %)
B/P matrices and projection     :      0.001 s (16.747 %)
Hessian update/contruction      :      0.001 s (13.722 %)
Making the step                 :      0.003 s (39.237 %)
Converting the step to Cartesian:      0.000 s ( 2.031 %)
Storing new data                :      0.000 s ( 0.804 %)
Checking convergence            :      0.000 s ( 0.862 %)
Final printing                  :      0.002 s (25.150 %)
Total time                      :      0.007 s

Time for energy+gradient        :      0.088 s
Time for complete geometry iter :      0.096 s

         *************************************************************
         *                GEOMETRY OPTIMIZATION CYCLE   2            *
         *************************************************************
---------------------------------
CARTESIAN COORDINATES (ANGSTROEM)
---------------------------------
  B    -2.296461   -0.426750    0.945619
  B    -0.222435    2.495319    1.592783
  B     0.264651    0.836462    0.988649
  B    -1.322279    2.277486    0.399780
  B     2.015021   -1.357342    0.182671
  B    -0.061710   -0.330606   -1.591829
  B    -1.248606   -0.724827   -2.490381
  B    -0.141225   -2.150009   -0.312581
  B     2.479593   -0.639952    1.148769
  B    -2.479911   -1.623823    0.279302
  B     1.450650    1.328987   -2.436829
  B     1.562712    0.315053    1.294048

----------------------------
CARTESIAN COORDINATES (A.U.)
----------------------------
  NO LB    ZA    FRAG    MASS        X           Y           Z
   0 B   5.0000    0    10.810   -4.339682   -0.806440    1.786962
   1 B   5.0000    0    10.810   -0.420342    4.715470    3.009923
   2 B   5.0000    0    10.810    0.500119    1.580685    1.868275
   3 B   5.0000    0    10.810   -2.498745    4.303824    0.755475
   4 B   5.0000    0    10.810    3.807838   -2.565004    0.345197
   5 B   5.0000    0    10.810   -0.116616   -0.624754   -3.008120
   6 B   5.0000    0    10.810   -2.359524   -1.369725   -4.706138
   7 B   5.0000    0    10.810   -0.266877   -4.062928   -0.590693
   8 B   5.0000    0    10.810    4.685752   -1.209334    2.170858
   9 B   5.0000    0    10.810   -4.686353   -3.068581    0.527804
  10 B   5.0000    0    10.810    2.741332    2.511422   -4.604939
  11 B   5.0000    0    10.810    2.953099    0.595365    2.445396

      -----------------------------------------------------------      
     |                   =====================                   |     
     |                           x T B                           |     
     |                   =====================                   |     
     |                         S. Grimme                         |     
     |          Mulliken Center for Theoretical Chemistry        |     
     |                    University of Bonn                     |     
      -----------------------------------------------------------      

   * xtb version 6.6.1 (unknown) compiled by 'builduser@buildhost' on 2023-08-07

   xtb is free software: you can redistribute it and/or modify it under
   the terms of the GNU Lesser General Public License as published by
   the Free Software Foundation, either version 3 of the License, or
   (at your option) any later version.
   
   xtb is distributed in the hope that it will be useful,
   but WITHOUT ANY WARRANTY; without even the implied warranty of
   MERCHANTABILITY or FITNESS FOR A PARTICULAR PURPOSE.  See the
   GNU Lesser General Public License for more details.
   
   Cite this work as:
   * C. Bannwarth, E. Caldeweyher, S. Ehlert, A. Hansen, P. Pracht,
     J. Seibert, S. Spicher, S. Grimme, WIREs Comput. Mol. Sci., 2020, 11,
     e01493. DOI: 10.1002/wcms.1493
   
   for GFN2-xTB:
   * C. Bannwarth, S. Ehlert and S. Grimme., J. Chem. Theory Comput., 2019,
     15, 1652-1671. DOI: 10.1021/acs.jctc.8b01176
   for GFN1-xTB:
   * S. Grimme, C. Bannwarth, P. Shushkov, J. Chem. Theory Comput., 2017,
     13, 1989-2009. DOI: 10.1021/acs.jctc.7b00118
   for GFN0-xTB:
   * P. Pracht, E. Caldeweyher, S. Ehlert, S. Grimme, ChemRxiv, 2019, preprint.
     DOI: 10.26434/chemrxiv.8326202.v1
   for GFN-FF:
   * S. Spicher and S. Grimme, Angew. Chem. Int. Ed., 2020, 59, 15665-15673.
     DOI: 10.1002/anie.202004239
   
   for ALPB and GBSA implicit solvation:
   * S. Ehlert, M. Stahn, S. Spicher, S. Grimme, J. Chem. Theory Comput.,
     2021, 17, 4250-4261. DOI: 10.1021/acs.jctc.1c00471
   
   for DFT-D4:
   * E. Caldeweyher, C. Bannwarth and S. Grimme, J. Chem. Phys., 2017,
     147, 034112. DOI: 10.1063/1.4993215
   * E. Caldeweyher, S. Ehlert, A. Hansen, H. Neugebauer, S. Spicher,
     C. Bannwarth and S. Grimme, J. Chem. Phys., 2019, 150, 154122.
     DOI: 10.1063/1.5090222
   * E. Caldeweyher, J.-M. Mewes, S. Ehlert and S. Grimme, Phys. Chem. Chem. Phys.
     2020, 22, 8499-8512. DOI: 10.1039/D0CP00502A
   
   for sTDA-xTB:
   * S. Grimme and C. Bannwarth, J. Chem. Phys., 2016, 145, 054103.
     DOI: 10.1063/1.4959605
   
   in the mass-spec context:
   * V. Asgeirsson, C. Bauer and S. Grimme, Chem. Sci., 2017, 8, 4879.
     DOI: 10.1039/c7sc00601b
   * J. Koopman and S. Grimme, ACS Omega 2019, 4, 12, 15120-15133.
     DOI: 10.1021/acsomega.9b02011
   
   for metadynamics refer to:
   * S. Grimme, J. Chem. Theory Comput., 2019, 155, 2847-2862
     DOI: 10.1021/acs.jctc.9b00143
   
   for SPH calculations refer to:
   * S. Spicher and S. Grimme, J. Chem. Theory Comput., 2021, 17, 1701-1714
     DOI: 10.1021/acs.jctc.0c01306
   
   with help from (in alphabetical order)
   P. Atkinson, C. Bannwarth, F. Bohle, G. Brandenburg, E. Caldeweyher
   M. Checinski, S. Dohm, S. Ehlert, S. Ehrlich, I. Gerasimov, C. Hölzer
   A. Katbashev, J. Koopman, C. Lavigne, S. Lehtola, F. März, M. Müller,
   F. Musil, H. Neugebauer, J. Pisarek, C. Plett, P. Pracht, F. Pultar,
   J. Seibert, P. Shushkov, S. Spicher, M. Stahn, M. Steiner, T. Strunk,
   J. Stückrath, T. Rose, and J. Unsleber
   
 * started run on 2026/04/17 at 12:14:06.827     

           -------------------------------------------------
          |                Calculation Setup                |
           -------------------------------------------------

          program call               : /usr/bin/xtb random_d1.70_003_m1_XTB.xyz --grad -c 0 -u 0 -P 1 --namespace random_d1.70_003_m1 --input random_d1.70_003_m1_XTB.input.tmp --acc 0.200000
          calculation namespace      : random_d1.70_003_m1
          coordinate file            : random_d1.70_003_m1_XTB.xyz
          omp threads                :                     1

   ID    Z sym.   atoms
    1    5 B      1-12

molecular fragmentation (1/2 indicates fragments):
122222222122
# atoms in fragment 1/2:     2    10
 fragment masses (1/2) :       21.62      108.11
CMA distance (Bohr)    :   6.055
constraining FC (au)   :  0.0500

           -------------------------------------------------
          |                 G F N 2 - x T B                 |
           -------------------------------------------------

        Reference                      10.1021/acs.jctc.8b01176
      * Hamiltonian:
        H0-scaling (s, p, d)           1.850000    2.230000    2.230000
        zeta-weighting                 0.500000
      * Dispersion:
        s8                             2.700000
        a1                             0.520000
        a2                             5.000000
        s9                             5.000000
      * Repulsion:
        kExp                           1.500000    1.000000
        rExp                           1.000000
      * Coulomb:
        alpha                          2.000000
        third order                    shell-resolved
        anisotropic                    true
        a3                             3.000000
        a5                             4.000000
        cn-shift                       1.200000
        cn-exp                         4.000000
        max-rad                        5.000000

q/qsh data taken from xtbrestart
CAMM data taken from xtbrestart

          ...................................................
          :                      SETUP                      :
          :.................................................:
          :  # basis functions                  48          :
          :  # atomic orbitals                  48          :
          :  # shells                           24          :
          :  # electrons                        36          :
          :  max. iterations                   250          :
          :  Hamiltonian                  GFN2-xTB          :
          :  restarted?                       true          :
          :  GBSA solvation                  false          :
          :  PC potential                    false          :
          :  electronic temp.          300.0000000     K    :
          :  accuracy                    0.2000000          :
          :  -> integral cutoff          0.3198970E+02      :
          :  -> integral neglect         0.2000000E-08      :
          :  -> SCF convergence          0.2000000E-06 Eh   :
          :  -> wf. convergence          0.2000000E-04 e    :
          :  Broyden damping             0.4000000          :
          ...................................................

 iter      E             dE          RMSdq      gap      omega  full diag
   1    -13.7107556 -0.137108E+02  0.802E-01    0.27       0.0  T
   2    -13.5904986  0.120257E+00  0.239E+00    0.14       1.0  T
   3    -13.7073544 -0.116856E+00  0.621E-01    0.24       1.0  T
   4    -13.5412382  0.166116E+00  0.278E+00    0.23       1.0  T
   5    -13.6254606 -0.842224E-01  0.195E+00    0.21       1.0  T
   6    -13.7034454 -0.779848E-01  0.649E-01    0.24       1.0  T
   7    -13.7071666 -0.372118E-02  0.483E-01    0.25       1.0  T
   8    -13.7100131 -0.284652E-02  0.339E-01    0.25       1.0  T
   9    -13.7125273 -0.251423E-02  0.122E-01    0.25       1.0  T
  10    -13.7126857 -0.158347E-03  0.845E-02    0.25       1.0  T
  11    -13.7126914 -0.565677E-05  0.759E-02    0.25       1.0  T
  12    -13.7126983 -0.691974E-05  0.641E-02    0.25       1.0  T
  13    -13.7127681 -0.698571E-04  0.300E-02    0.25       1.0  T
  14    -13.7127666  0.157632E-05  0.315E-02    0.25       1.0  T
  15    -13.7127734 -0.684339E-05  0.276E-02    0.25       1.0  T
  16    -13.7127731  0.308038E-06  0.268E-02    0.25       1.1  T
  17    -13.7127798 -0.666614E-05  0.164E-02    0.25       1.8  T
  18    -13.7127819 -0.212940E-05  0.129E-02    0.25       2.2  T
  19    -13.7127835 -0.156750E-05  0.746E-03    0.25       3.9  T
  20    -13.7127842 -0.744056E-06  0.174E-03    0.25      16.6  T
  21    -13.7127842 -0.307736E-07  0.918E-04    0.25      31.4  T
  22    -13.7127842 -0.117617E-07  0.485E-04    0.25      59.5  T
  23    -13.7127842 -0.828873E-09  0.315E-04    0.25      91.5  T
  24    -13.7127842 -0.558215E-09  0.218E-04    0.25     132.3  T
  25    -13.7127842 -0.361799E-09  0.865E-05    0.25     333.6  T
  26    -13.7127842 -0.409788E-10  0.471E-05    0.25     612.8  T

   *** convergence criteria satisfied after 26 iterations ***

         #    Occupation            Energy/Eh            Energy/eV
      -------------------------------------------------------------
         1        2.0000           -0.4077875             -11.0965
       ...           ...                  ...                  ...
        12        2.0000           -0.2843556              -7.7377
        13        2.0000           -0.2727956              -7.4231
        14        2.0000           -0.2699681              -7.3462
        15        2.0000           -0.2621952              -7.1347
        16        2.0000           -0.2570372              -6.9943
        17        1.9982           -0.2527515              -6.8777
        18        1.9846           -0.2506998              -6.8219 (HOMO)
        19        0.0172           -0.2415734              -6.5735 (LUMO)
        20                         -0.2291291              -6.2349
        21                         -0.2213362              -6.0229
        22                         -0.2185845              -5.9480
        23                         -0.2177671              -5.9257
       ...                                ...                  ...
        48                          2.6997005              73.4626
      -------------------------------------------------------------
                  HL-Gap            0.0091265 Eh            0.2483 eV
             Fermi-level           -0.2460834 Eh           -6.6963 eV

 SCC (total)                   0 d,  0 h,  0 min,  0.033 sec
 SCC setup                      ...        0 min,  0.000 sec (  0.661%)
 Dispersion                     ...        0 min,  0.000 sec (  0.624%)
 classical contributions        ...        0 min,  0.000 sec (  0.128%)
 integral evaluation            ...        0 min,  0.003 sec (  8.832%)
 iterations                     ...        0 min,  0.024 sec ( 73.145%)
 molecular gradient             ...        0 min,  0.005 sec ( 15.802%)
 printout                       ...        0 min,  0.000 sec (  0.735%)

         :::::::::::::::::::::::::::::::::::::::::::::::::::::
         ::                     SUMMARY                     ::
         :::::::::::::::::::::::::::::::::::::::::::::::::::::
         :: total energy             -13.379769777534 Eh    ::
         :: gradient norm              0.560257316914 Eh/a0 ::
         :: HOMO-LUMO gap              0.248343373847 eV    ::
         ::.................................................::
         :: SCC energy               -13.712784240625 Eh    ::
         :: -> isotropic ES            0.076325988488 Eh    ::
         :: -> anisotropic ES          0.001271162410 Eh    ::
         :: -> anisotropic XC         -0.040576980168 Eh    ::
         :: -> dispersion             -0.022032811808 Eh    ::
         :: repulsion energy           0.332860236638 Eh    ::
         :: add. restraining           0.000000000000 Eh    ::
         :: total charge               0.000000000000 e     ::
         :::::::::::::::::::::::::::::::::::::::::::::::::::::


Property printout bound to 'properties.out'

           -------------------------------------------------
          | TOTAL ENERGY              -13.379769777534 Eh   |
          | GRADIENT NORM               0.560257316914 Eh/α |
          | HOMO-LUMO GAP               0.248343373847 eV   |
           -------------------------------------------------

------------------------------------------------------------------------
 * finished run on 2026/04/17 at 12:14:06.881     
------------------------------------------------------------------------
 total:
 * wall-time:     0 d,  0 h,  0 min,  0.054 sec
 *  cpu-time:     0 d,  0 h,  0 min,  0.054 sec
 * ratio c/w:     0.991 speedup
 SCF:
 * wall-time:     0 d,  0 h,  0 min,  0.033 sec
 *  cpu-time:     0 d,  0 h,  0 min,  0.033 sec
 * ratio c/w:     0.991 speedup


-------------------------   --------------------
FINAL SINGLE POINT ENERGY       -13.379769777530
-------------------------   --------------------


-------------
DIPOLE MOMENT
-------------
                                X             Y             Z
Total Dipole Moment    :     -1.21500      -0.83600      -0.01800
                        -----------------------------------------
Magnitude (a.u.)       :      1.47494
Magnitude (Debye)      :      3.74900


------------------
CARTESIAN GRADIENT
------------------

   1   B   :   -0.024029566   -0.073595962   -0.017411546
   2   B   :    0.056222141    0.060582966    0.089783569
   3   B   :    0.105438848   -0.110019929   -0.007152345
   4   B   :   -0.070416850    0.023412016   -0.077870159
   5   B   :    0.157605929    0.190097399    0.217397424
   6   B   :    0.016369974    0.005477359    0.039705894
   7   B   :   -0.049226910   -0.011623091   -0.051417440
   8   B   :   -0.005699667   -0.070148889    0.012924179
   9   B   :   -0.266433998   -0.006362454   -0.187469821
  10   B   :   -0.038610821    0.063470430    0.037739400
  11   B   :    0.035277246    0.041483274   -0.022307126
  12   B   :    0.083503674   -0.112773117   -0.033922030

Difference to translation invariance:
           :    0.0000000000   -0.0000000000   -0.0000000000

Difference to rotation invariance:
           :   -0.0000000035    0.0000000302   -0.0000000144

Norm of the Cartesian gradient     ...    0.5602573169
RMS gradient                       ...    0.0933762195
MAX gradient                       ...    0.2664339975
------------------------------------------------------------------------------
                         ORCA GEOMETRY RELAXATION STEP
------------------------------------------------------------------------------

Reading the OPT-File                    .... done
Getting information on internals        .... done
Copying old internal coords+grads       .... done
Making the new internal coordinates     .... (2022 redundants) done
Validating the new internal coordinates .... (2022 redundants) done
Calculating the B-matrix                .... done
Calculating the G,G- and P matrices     .... done
Transforming gradient to internals      .... done
Projecting the internal gradient        .... done
Number of atoms                         ....  12
Number of internal coordinates          .... 137
Current Energy                          ....   -13.379769778 Eh
Current gradient norm                   ....     0.560257317 Eh/bohr
Maximum allowed component of the step   ....  0.300
Current trust radius                    ....  0.300
Updating the Hessian (BFGS)             .... done
Forming the augmented Hessian           .... done
Diagonalizing the augmented Hessian     .... done
Last element of RFO vector              ....  0.826699085
Lowest eigenvalues of augmented Hessian:
 -0.186359237  0.015797016  0.017964965  0.018570197  0.019827033
Length of the computed step             ....  0.680591431
Warning: the length of the step is outside the trust region - taking restricted step instead
The input lambda is                     ....     0.013580
   iter:   5  x=    0.004927  g=32564.458024 f(x)=   119.272698
   iter:  10  x=   -0.089221  g=   60.691299 f(x)=     2.402554
   iter:  15  x=   -0.627424  g=    0.287397 f(x)=     0.025281
   iter:  20  x=   -0.647499  g=    0.190164 f(x)=     0.000000
The output lambda is                    ....    -0.647499 (20 iterations)
The final length of the internal step   ....  0.300000000
Converting the step to Cartesian space:
 Initial RMS(Int)=    0.0256307297
Transforming coordinates:
 Iter   0:  RMS(Cart)=    0.0381372177 RMS(Int)=    0.0255766464
done
Storing new coordinates                 .... done
The predicted energy change is          ....    -0.077535511
Previously predicted energy change      ....    -0.140779318
Actually observed energy change         ....    -0.138416915
Ratio of predicted to observed change   ....     0.983219104
New trust radius                        ....     0.450000000

                                .--------------------.
          ----------------------|Geometry convergence|-------------------------
          Item                value                   Tolerance       Converged
          ---------------------------------------------------------------------
          Energy change      -0.1384169148            0.0000010000      NO
          RMS gradient        0.0296271006            0.0000300000      NO
          MAX gradient        0.1962143016            0.0001000000      NO
          RMS step            0.0256307297            0.0006000000      NO
          MAX step            0.1134626469            0.0010000000      NO
          -------------------------------------------------------------------------
          ........................................................
          Max(Bonds)      0.0600      Max(Angles)    3.28
          Max(Dihed)        1.60      Max(Improp)    0.00
          ---------------------------------------------------------------------

The optimization has not yet converged - more geometry cycles are needed


    ---------------------------------------------------------------------------
                         Redundant Internal Coordinates
                            (Angstroem and degrees)

        Definition                    Value    dE/dq     Step     New-Value
    ----------------------------------------------------------------------------
     1. B(B   2,B   1)                1.8314  0.060507 -0.0421    1.7893   
     2. B(B   2,B   0)                2.8560  0.032528 -0.0220    2.8340   
     3. B(B   3,B   1)                1.6372  0.094181 -0.0600    1.5771   
     4. B(B   3,B   0)                2.9257  0.027473 -0.0228    2.9029   
     5. B(B   5,B   2)                2.8509 -0.012785  0.0029    2.8538   
     6. B(B   5,B   4)                2.9182 -0.009852  0.0000    2.9182   
     7. B(B   6,B   5)                1.5400  0.044006 -0.0276    1.5124   
     8. B(B   7,B   4)                2.3501  0.042783 -0.0341    2.3161   
     9. B(B   7,B   6)                2.8285  0.039199 -0.0241    2.8044   
    10. B(B   7,B   5)                2.2255  0.016055 -0.0140    2.2115   
    11. B(B   7,B   0)                3.0328  0.001439 -0.0084    3.0244   
    12. B(B   8,B   4)                1.2899 -0.196214  0.0554    1.3453   
    13. B(B   9,B   0)                1.3823 -0.044144  0.0192    1.4014   
    14. B(B   9,B   7)                2.4691  0.036329 -0.0276    2.4415   
    15. B(B  10,B   5)                2.3991  0.058792 -0.0475    2.3515   
    16. B(B  11,B   4)                2.0583 -0.115268  0.0402    2.0985   
    17. B(B  11,B   2)                1.4318 -0.067150  0.0300    1.4618   
    18. B(B  11,B   8)                1.3318 -0.118563  0.0502    1.3820   
    19. A(B   2,B   0,B   9)          120.62 -0.000823   -0.13    120.49   
    20. A(B   3,B   0,B   9)          139.00  0.005374   -0.47    138.54   
    21. A(B   7,B   0,B   9)           53.29  0.010631   -0.71     52.58   
    22. A(B   3,B   0,B   7)          102.19  0.004512   -0.51    101.68   
    23. A(B   2,B   0,B   7)           67.69 -0.011892    0.61     68.30   
    24. A(B   2,B   0,B   3)           45.20  0.017151   -1.23     43.97   
    25. A(B   2,B   1,B   3)           79.50  0.004954   -0.45     79.05   
    26. A(B   0,B   2,B   1)           99.62 -0.006919    0.46    100.08   
    27. A(B   1,B   2,B   5)          129.71  0.000451    0.02    129.73   
    28. A(B   1,B   2,B  11)          120.04 -0.005493    0.65    120.69   
    29. A(B   0,B   2,B  11)          130.93  0.012342   -1.05    129.88   
[...]
           :    0.0000000000    0.0000000000   -0.0000000000

Difference to rotation invariance:
           :   -0.0000000042    0.0000000026    0.0000000098

Norm of the Cartesian gradient     ...    0.0045337147
RMS gradient                       ...    0.0007556191
MAX gradient                       ...    0.0025220908
------------------------------------------------------------------------------
                         ORCA GEOMETRY RELAXATION STEP
------------------------------------------------------------------------------

Reading the OPT-File                    .... done
Getting information on internals        .... done
Copying old internal coords+grads       .... done
Making the new internal coordinates     .... (2022 redundants) done
Validating the new internal coordinates .... (2022 redundants) done
Calculating the B-matrix                .... done
Calculating the G,G- and P matrices     .... done
Transforming gradient to internals      .... done
Projecting the internal gradient        .... done
Number of atoms                         ....  12
Number of internal coordinates          .... 138
Current Energy                          ....   -14.277704034 Eh
Current gradient norm                   ....     0.004533715 Eh/bohr
Maximum allowed component of the step   ....  0.300
Current trust radius                    ....  0.311
Updating the Hessian (BFGS)             .... done
Forming the augmented Hessian           .... done
Diagonalizing the augmented Hessian     .... done
Last element of RFO vector              ....  0.997139141
Lowest eigenvalues of augmented Hessian:
 -0.000035862  0.000858960  0.003354442  0.003927974  0.004232988
Length of the computed step             ....  0.075804790
The final length of the internal step   ....  0.075804790
Converting the step to Cartesian space:
 Initial RMS(Int)=    0.0064529323
Transforming coordinates:
 Iter   0:  RMS(Cart)=    0.0040940050 RMS(Int)=    0.0064464569
done
Storing new coordinates                 .... done
The predicted energy change is          ....    -0.000018034
Previously predicted energy change      ....    -0.000028604
Actually observed energy change         ....    -0.000039098
Ratio of predicted to observed change   ....     1.366848488
New trust radius                        ....     0.311111111

                                .--------------------.
          ----------------------|Geometry convergence|-------------------------
          Item                value                   Tolerance       Converged
          ---------------------------------------------------------------------
          Energy change      -0.0000390977            0.0000010000      NO
          RMS gradient        0.0001875639            0.0000300000      NO
          MAX gradient        0.0012750473            0.0001000000      NO
          RMS step            0.0064529323            0.0006000000      NO
          MAX step            0.0226365969            0.0010000000      NO
          -------------------------------------------------------------------------
          ........................................................
          Max(Bonds)      0.0100      Max(Angles)    0.50
          Max(Dihed)        1.30      Max(Improp)    0.00
          ---------------------------------------------------------------------

The optimization has not yet converged - more geometry cycles are needed


    ---------------------------------------------------------------------------
                         Redundant Internal Coordinates
                            (Angstroem and degrees)

        Definition                    Value    dE/dq     Step     New-Value
    ----------------------------------------------------------------------------
     1. B(B   2,B   1)                1.5117 -0.000089  0.0002    1.5119   
     2. B(B   3,B   1)                1.4959 -0.000257 -0.0001    1.4958   
     3. B(B   3,B   0)                1.5117 -0.000147  0.0003    1.5120   
     4. B(B   3,B   2)                2.8299 -0.000186  0.0002    2.8301   
     5. B(B   5,B   4)                1.9528 -0.000117 -0.0100    1.9427   
     6. B(B   6,B   5)                1.5577 -0.000370  0.0022    1.5599   
     7. B(B   7,B   4)                1.5465 -0.000139  0.0006    1.5472   
     8. B(B   7,B   6)                1.6482 -0.000134  0.0002    1.6484   
     9. B(B   7,B   5)                1.7898  0.000060 -0.0033    1.7865   
    10. B(B   8,B   4)                1.5562 -0.001275  0.0008    1.5570   
    11. B(B   9,B   7)                1.6987 -0.000350  0.0001    1.6988   
    12. B(B   9,B   6)                1.5301  0.000032  0.0009    1.5310   
    13. B(B   9,B   0)                1.5321  0.000316 -0.0001    1.5320   
    14. B(B  10,B   5)                1.5474 -0.000091  0.0001    1.5475   
    15. B(B  10,B   4)                1.7778 -0.000363  0.0007    1.7784   
    16. B(B  10,B   8)                1.6394 -0.000705  0.0030    1.6424   
    17. B(B  11,B  10)                1.7097 -0.000013 -0.0029    1.7068   
    18. B(B  11,B   8)                1.5314  0.000408  0.0009    1.5323   
    19. B(B  11,B   2)                1.5306 -0.000197 -0.0005    1.5301   
    20. A(B   3,B   0,B   9)          138.16  0.000069    0.19    138.35   
    21. A(B   2,B   1,B   3)          140.41  0.000145    0.05    140.46   
    22. A(B   1,B   2,B   3)           19.69 -0.000083   -0.03     19.66   
    23. A(B   1,B   2,B  11)          138.70 -0.000065    0.13    138.83   
    24. A(B   3,B   2,B  11)          119.41  0.000017    0.13    119.53   
    25. A(B   1,B   3,B   2)           19.90 -0.000062   -0.03     19.88   
    26. A(B   0,B   3,B   2)          120.07 -0.000158   -0.08    119.99   
    27. A(B   5,B   4,B   7)           60.20  0.000066    0.12     60.32   
    28. A(B   5,B   4,B  10)           48.73  0.000026    0.17     48.91   
    29. A(B   5,B   4,B   8)          106.99  0.000033    0.25    107.24   
    30. A(B   7,B   4,B   8)          151.23  0.000150   -0.16    151.07   
    31. A(B   8,B   4,B  10)           58.46 -0.000002    0.09     58.55   
    32. A(B   7,B   4,B  10)          105.81  0.000094    0.23    106.05   
    33. A(B   4,B   5,B   7)           48.58 -0.000031    0.23     48.81   
    34. A(B   7,B   5,B  10)          105.21 -0.000111    0.44    105.65   
    35. A(B   6,B   5,B  10)          149.81 -0.000099    0.31    150.13   
    36. A(B   4,B   5,B  10)           59.72 -0.000093    0.28     60.00   
    37. A(B   6,B   5,B   7)           58.50 -0.000011    0.05     58.56   
    38. A(B   4,B   5,B   6)          106.76 -0.000049    0.29    107.05   
    39. A(B   5,B   6,B   7)           67.81  0.000133   -0.20     67.60   
    40. A(B   7,B   6,B   9)           64.49 -0.000114   -0.02     64.47   
    41. A(B   5,B   6,B   9)          118.35  0.000019   -0.02    118.33   
    42. A(B   5,B   7,B   6)           53.69 -0.000122    0.15     53.84   
    43. A(B   4,B   7,B   6)          124.47 -0.000165   -0.20    124.28   
    44. A(B   6,B   7,B   9)           54.38  0.000092    0.03     54.41   
    45. A(B   5,B   7,B   9)           98.91 -0.000023    0.24     99.15   
    46. A(B   4,B   7,B   5)           71.22 -0.000035   -0.35     70.87   
    47. A(B   4,B   7,B   9)          140.48 -0.000129    0.35    140.84   
    48. A(B   4,B   8,B  10)           67.55  0.000287   -0.06     67.48   
    49. A(B  10,B   8,B  11)           65.15  0.000078   -0.22     64.94   
    50. A(B   4,B   8,B  11)          117.50  0.000204   -0.19    117.31   
    51. A(B   6,B   9,B   7)           61.13  0.000022   -0.01     61.12   
    52. A(B   0,B   9,B   7)          119.43  0.000046   -0.11    119.32   
    53. A(B   0,B   9,B   6)          139.07  0.000086   -0.27    138.80   
    54. A(B   4,B  10,B   5)           71.55  0.000066   -0.46     71.09   
    55. A(B   8,B  10,B  11)           54.37  0.000253    0.05     54.42   
    56. A(B   5,B  10,B  11)          140.62 -0.000064   -0.31    140.31   
    57. A(B   4,B  10,B  11)           98.36 -0.000069    0.03     98.39   
    58. A(B   5,B  10,B   8)          125.27 -0.000205   -0.50    124.77   
    59. A(B   4,B  10,B   8)           54.00 -0.000285   -0.02     53.97   
    60. A(B   8,B  11,B  10)           60.47 -0.000331    0.17     60.64   
    61. A(B   2,B  11,B  10)          119.77  0.000275    0.21    119.98   
    62. A(B   2,B  11,B   8)          138.19 -0.000073   -0.12    138.06   
    63. D(B   2,B   1,B   0,B   9)    -20.76  0.000151    0.02    -20.74   
    64. D(B  11,B   2,B   1,B   3)    -13.43  0.000014    0.63    -12.80   
    65. D(B   2,B   3,B   0,B   9)    -18.58  0.000039    0.18    -18.40   
    66. D(B   1,B   3,B   2,B  11)    169.87 -0.000004    0.45    170.31   
    67. D(B   0,B   3,B   2,B  11)    -21.51  0.000124    0.19    -21.32   
    68. D(B   0,B   3,B   2,B   1)    168.63  0.000128   -0.26    168.37   
    69. D(B   6,B   5,B   4,B   7)      6.57  0.000076   -0.20      6.36   
    70. D(B   7,B   5,B   4,B  10)   -156.97 -0.000025    0.17   -156.80   
    71. D(B   6,B   5,B   4,B  10)   -150.40  0.000051   -0.03   -150.44   
    72. D(B  10,B   5,B   4,B   7)    156.97  0.000025   -0.17    156.80   
    73. D(B   6,B   5,B   4,B   8)   -145.23 -0.000060    0.19   -145.04   
    74. D(B   7,B   5,B   4,B   8)   -151.79 -0.000136    0.39   -151.40   
    75. D(B   9,B   6,B   5,B   4)     35.76 -0.000108   -0.08     35.68   
    76. D(B   7,B   6,B   5,B  10)    -63.80  0.000151   -0.76    -64.56   
    77. D(B   7,B   6,B   5,B   4)     -5.77 -0.000064    0.17     -5.60   
    78. D(B   9,B   6,B   5,B  10)    -22.27  0.000107   -1.01    -23.28   
    79. D(B   9,B   6,B   5,B   7)     41.53 -0.000044   -0.25     41.28   
    80. D(B   6,B   7,B   5,B   4)    172.62 -0.000088    0.23    172.85   
    81. D(B   9,B   7,B   5,B   4)    140.49 -0.000124    0.34    140.83   
    82. D(B   9,B   7,B   5,B   6)    -32.14 -0.000036    0.12    -32.02   
    83. D(B   4,B   7,B   5,B  10)    -20.49  0.000053   -0.25    -20.75   
    84. D(B   4,B   7,B   5,B   6)   -172.62  0.000088   -0.23   -172.85   
    85. D(B   6,B   7,B   4,B  10)     10.59 -0.000063    0.43     11.01   
    86. D(B   6,B   7,B   4,B   8)     62.71 -0.000030    1.29     64.01   
    87. D(B   4,B   7,B   6,B   9)   -131.24  0.000078   -0.50   -131.74   
    88. D(B   4,B   7,B   6,B   5)      8.48  0.000082   -0.29      8.19   
    89. D(B   6,B   7,B   4,B   5)     -7.21 -0.000060    0.23     -6.98   
    90. D(B   9,B   7,B   4,B   5)    -81.08  0.000014    0.29    -80.80   
    91. D(B   6,B   7,B   5,B  10)    152.13 -0.000035   -0.02    152.10   
    92. D(B   5,B   7,B   4,B  10)     17.80 -0.000003    0.19     17.99   
    93. D(B   5,B   7,B   4,B   8)     69.92  0.000030    1.06     70.98   
    94. D(B   9,B   7,B   6,B   5)    139.72  0.000004    0.21    139.93   
    95. D(B   5,B   7,B   6,B   9)   -139.72 -0.000004   -0.21   -139.93   
    96. D(B  11,B   8,B   4,B  10)     43.31  0.000233   -0.20     43.11   
    97. D(B  11,B   8,B   4,B   5)     38.75  0.000329   -0.42     38.33   
    98. D(B  10,B   8,B   4,B   7)    -63.02  0.000000   -1.10    -64.12   
    99. D(B  11,B   8,B   4,B   7)    -19.71  0.000233   -1.30    -21.01   
   100. D(B  10,B   8,B   4,B   5)     -4.56  0.000096   -0.22     -4.78   
   101. D(B   6,B   9,B   7,B   5)     31.82 -0.000061   -0.05     31.77   
   102. D(B   0,B   9,B   7,B   6)   -132.81 -0.000096    0.28   -132.53   
   103. D(B   0,B   9,B   7,B   5)   -100.98 -0.000157    0.23   -100.76   
   104. D(B   0,B   9,B   7,B   4)    -29.76 -0.000209   -0.16    -29.92   
   105. D(B   7,B   9,B   6,B   5)    -42.86 -0.000055    0.33    -42.52   
   106. D(B   0,B   9,B   6,B   7)    102.74  0.000067   -0.06    102.69   
   107. D(B   0,B   9,B   6,B   5)     59.89  0.000013    0.28     60.17   
   108. D(B   6,B   9,B   7,B   4)    103.05 -0.000112   -0.44    102.61   
   109. D(B   7,B   9,B   0,B   3)     57.34  0.000081   -0.39     56.95   
   110. D(B   6,B   9,B   0,B   3)    -21.38 -0.000031   -0.22    -21.59   
   111. D(B   5,B  10,B   8,B   4)      6.75 -0.000161    0.23      6.98   
   112. D(B   4,B  10,B   8,B  11)   -137.90  0.000095   -0.00   -137.90   
   113. D(B  11,B  10,B   5,B   4)    -80.51 -0.000006    0.35    -80.16   
   114. D(B   8,B  10,B   5,B   6)     64.39 -0.000021    0.68     65.08   
   115. D(B   8,B  10,B   5,B   4)     -5.75  0.000160   -0.23     -5.98   
   116. D(B   4,B  10,B   5,B   7)     17.70 -0.000037    0.23     17.93   
   117. D(B   4,B  10,B   5,B   6)     70.15 -0.000181    0.91     71.06   
   118. D(B  11,B  10,B   4,B   7)    120.11 -0.000059   -0.47    119.64   
   119. D(B  11,B  10,B   4,B   5)    140.77 -0.000056   -0.27    140.50   
   120. D(B   8,B  10,B   5,B   7)     11.94  0.000123    0.00     11.95   
   121. D(B   8,B  10,B   4,B   7)    153.53  0.000123   -0.45    153.08   
   122. D(B   8,B  10,B   4,B   5)    174.19  0.000126   -0.25    173.94   
   123. D(B   5,B  10,B   4,B   8)   -174.19 -0.000126    0.25   -173.94   
   124. D(B   5,B  10,B   8,B  11)   -131.15 -0.000066    0.23   -130.91   
   125. D(B   5,B  10,B   4,B   7)    -20.66 -0.000002   -0.19    -20.86   
   126. D(B  11,B  10,B   8,B   4)    137.90 -0.000095    0.00    137.90   
   127. D(B   8,B  11,B  10,B   5)    104.27 -0.000036   -0.62    103.65   
   128. D(B   2,B  11,B  10,B   8)   -131.52  0.000242    0.18   -131.34   
   129. D(B   2,B  11,B  10,B   5)    -27.24  0.000206   -0.45    -27.69   
   130. D(B   2,B  11,B  10,B   4)    -98.27  0.000168    0.16    -98.10   
   131. D(B  10,B  11,B   8,B   4)    -44.31 -0.000322    0.13    -44.18   
   132. D(B   2,B  11,B   8,B  10)    102.87  0.000110    0.56    103.43   
   133. D(B   2,B  11,B   8,B   4)     58.56 -0.000212    0.69     59.25   
   134. D(B  10,B  11,B   2,B   3)     51.44 -0.000103   -0.08     51.36   
   135. D(B  10,B  11,B   2,B   1)     56.59 -0.000129   -0.35     56.24   
   136. D(B   8,B  11,B  10,B   4)     33.25 -0.000074   -0.01     33.24   
   137. D(B   8,B  11,B   2,B   3)    -26.32  0.000150   -0.51    -26.83   
   138. D(B   8,B  11,B   2,B   1)    -21.16  0.000125   -0.78    -21.95   
    ----------------------------------------------------------------------------

Geometry step timings:
Preparation and reading OPT file:      0.000 s ( 1.065 %)
Internal coordinates            :      0.000 s ( 0.771 %)
B/P matrices and projection     :      0.002 s (22.018 %)
Hessian update/contruction      :      0.001 s (16.510 %)
Making the step                 :      0.003 s (37.015 %)
Converting the step to Cartesian:      0.000 s ( 3.392 %)
Storing new data                :      0.000 s ( 1.065 %)
Checking convergence            :      0.000 s ( 1.037 %)
Final printing                  :      0.001 s (17.113 %)
Total time                      :      0.007 s

Time for energy+gradient        :      0.059 s
Time for complete geometry iter :      0.068 s




    ----------------------------------------------------------------------------
                                  WARNING !!!
       The optimization did not converge but reached the maximum number of
       optimization cycles.
       Please check your results very carefully.
    ----------------------------------------------------------------------------



--------------------------------
SUGGESTED CITATIONS FOR THIS RUN
--------------------------------

Below you find a list of papers that are relevant to this ORCA run
We neither can nor want to force you to cite these papers, but we appreciate if you do
You receive ORCA, which is the product of decades of hard work by many enthusiastic individuals, for free
The only thing we kindly ask in return is that you cite our papers,
We deeply appreciate it, if you show your appreciation for ORCA by not just citing the generic ORCA reference.

Please note that relegating all ORCA citations to the supporting information does *not* help us.
SI sections are not indexed - citations you put there will not count into any citation statistics
But we need these citations in order to attract the funding resources that allow us to do what we are doing

Therefore, if you are a happy ORCA user, please consider citing a few of the papers listed below in the main body of your paper

In addition to the list printed below, the program has created the file random_d1.70_003_m1.bibtex that contains the list in bibtex format
You can import this file easily into all common literature databanks and citation aid programs

It goes without saying that in many instances, there are alternative algorithms to achieve similar
results as the ones you have gotten from ORCA. It is, of course, also the case that in some instances
ORCA just re-implements algorithms worked out by others. We are fully aware of that and we are also
fully appreciative of our colleagues work. Hence this citation list should not be read as indicating
that the listed papers, which are focused on our own work, are the only ones worth citing. It simply
meant to make it easier for users to cite ORCA specific papers. It is not a substitute for doing your
own literature research and citing the relevant literature in a scientifically appropriate manner.

List of essential papers. We consider these as the minimum necessary citations

  1. Bannwarth, C.; Ehlert, S.; Grimme, S.
     GFN2-xTB—An Accurate and Broadly Parametrized Self-Consistent Tight-Binding Quantum Chemical Method with Multipole Electrostatics and Density-Dependent Dispersion Contributions
     J. Chem. Theory Comput. 2019 15(3), 1652-1671
     doi.org/10.1021/acs.jctc.8b01176
  2. Neese, F.
     Software update: the ORCA program system, version 6.0
     WIRES Comput. Molec. Sci. 2025 15(1), e70019
     doi.org/10.1002/wcms.70019

List of papers to cite with high priority. The work reported in these papers was absolutely
necessary for this run to complete.
Our perspective: the developers of density functionals and basis sets usually get cited in chemistry papers
Good! But without the algorithms to do something with them, the functionals or basis sets would not do anything.
Hence, in our opinion, the algorithm design and method developments papers are equally worthy of getting cited

  1. Bannwarth, C.; Caldeweyher, E.; Ehlert, S.; Hansen, A.; Pracht, P.; Seibert, J.; Spicher, S.; Grimme, S.
     Extended tight-binding quantum chemistry methods
     WIRES Comput. Molec. Sci. 2020 11(2), e1493
     doi.org/10.1002/wcms.1493

List of suggested additional citations. These are papers that are important in the 'surrounding' of 
of this run, or papers that preceded the highly important papers. If you like your results we are grateful for a citation.

  1. Neese, F.
     The ORCA program system
     WIRES Comput. Molec. Sci. 2012 2(1), 73-78
     doi.org/10.1002/wcms.81
  2. Neese, F.
     Software update: the ORCA program system, version 4.0
     WIRES Comput. Molec. Sci. 2018 8(1), 1-6
     doi.org/10.1002/wcms.1327
  3. Neese, F.; Wennmohs, F.; Becker, U.; Riplinger, C.
     The ORCA quantum chemistry program package
     J. Chem. Phys. 2020 152(22), 224108
     doi.org/10.1063/5.0004608
  4. Neese, F.
     Software update: The ORCA program system—Version 5.0
     WIRES Comput. Molec. Sci. 2022 12(1), e1606
     doi.org/10.1002/wcms.1606

List of optional additional citations

  1. Neese, F.
     Approximate second-order SCF convergence for spin unrestricted wavefunctions
     Chem. Phys. Lett. 2000 325(1-3), 93-98
     doi.org/10.1016/s0009-2614(00)00662-x

Timings for individual modules:

Sum of individual times          ...        3.031 sec (=   0.051 min)
Geometry relaxation              ...        0.378 sec (=   0.006 min)  12.5 %
XTB module                       ...        2.653 sec (=   0.044 min)  87.5 %
                             ****ORCA TERMINATED NORMALLY****
TOTAL RUN TIME: 0 days 0 hours 0 minutes 3 seconds 528 msec
