
                                 *****************
                                 * O   R   C   A *
                                 *****************

                                            #,                                       
                                            ###                                      
                                            ####                                     
                                            #####                                    
                                            ######                                   
                                           ########,                                 
                                     ,,################,,,,,                         
                               ,,#################################,,                 
                          ,,##########################################,,             
                       ,#########################################, ''#####,          
                    ,#############################################,,   '####,        
                  ,##################################################,,,,####,       
                ,###########''''           ''''###############################       
              ,#####''   ,,,,##########,,,,          '''####'''          '####       
            ,##' ,,,,###########################,,,                        '##       
           ' ,,###''''                  '''############,,,                           
         ,,##''                                '''############,,,,        ,,,,,,###''
      ,#''                                            '''#######################'''  
     '                                                          ''''####''''         
             ,#######,   #######,   ,#######,      ##                                
            ,#'     '#,  ##    ##  ,#'     '#,    #''#        ,####,    ,#,          
            ##       ##  ##   ,#'  ##            #'  '#       #'       ,# #          
            ##       ##  #######   ##           ,######,      #####,      #          
            '#,     ,#'  ##    ##  '#,     ,#' ,#      #,     #,   #      #          
             '#######'   ##     ##  '#######'  #'      '#     '####' #    #          



                #########################################################
                #                        -***-                          #
                #          Department of theory and spectroscopy        #
                #                                                       #
                #                      Frank Neese                      #
                #                                                       #
                #     Directorship, Architecture, Infrastructure        #
                #                    SHARK, DRIVERS                     #
                #        Core code/Algorithms in most modules           #
                #                                                       #
                #        Max Planck Institute fuer Kohlenforschung      #
                #                Kaiser Wilhelm Platz 1                 #
                #                 D-45470 Muelheim/Ruhr                 #
                #                      Germany                          #
                #                                                       #
                #                  All rights reserved                  #
                #                        -***-                          #
                #########################################################


                         Program Version 6.1.1  -  RELEASE   -
                                (GIT: $487d211c$)
                          ($2025-11-21 10:33:24 +0100$)
                                                                         
                                  - NO-DMRG VERSION -                    
                                                                         


 With contributions from (in alphabetic order):
[Max-Planck-Institut fuer Kohlenforschung]                               
  Daniel Aravena         : Magnetic Suceptibility                        
  Michael Atanasov       : Ab Initio Ligand Field Theory (pilot matlab implementation)
  Alexander A. Auer      : GIAO ZORA, VPT2 properties, NMR spectrum      
  Ute Becker             : All parallelization in ORCA, NUMFREQ, NUMCALC 
  Giovanni Bistoni       : ED, misc. LED, open-shell LED, HFLD           
  Dmytro Bykov           : pre 5.0 version of the SCF Hessian            
  Marcos Casanova-Páez   : Triplet and SCS-CIS(D). UHF-(DLPNO)-IP/EA/STEOM-CCSD. UHF-CVS-IP/STEOM-CCSD   
  Vijay G. Chilkuri      : MRCI spin determinant printing, contributions to CSF-ICE 
  Pauline Colinet        : FMM embedding                                 
  Dipayan Datta          : RHF DLPNO-CCSD density                        
  Achintya Kumar Dutta   : EOM-CC, STEOM-CC                              
  Nicolas Foglia         : Exact transition moments, OPA infrastructure, MCD improvements    
  Dmitry Ganyushin       : Spin-Orbit,Spin-Spin,Magnetic field MRCI      
  Miquel Garcia-Rates    : C-PCM and meta-GGA Hessian, CCSD/C-PCM, Gaussian charge scheme 
  Tiago L. C. Gouveia    : GS-ROHF, GS-ROCIS                             
  Yang Guo               : DLPNO-NEVPT2, F12-NEVPT2, CIM, IAO-localization        
  Andreas Hansen         : Spin unrestricted coupled pair/coupled cluster methods 
  Ingolf Harden          : AUTO-CI MPn and infrastructure                
  Benjamin Helmich-Paris : MC-RPA, TRAH-(SCF,CASSCF), AVAS, COSX integrals, SCF dyn. polar., MC-PDFT, srDFT 
  Lee Huntington         : MR-EOM, pCC                                   
  Robert Izsak           : Overlap fitted RIJCOSX, COSX-SCS-MP3, EOM     
  Riya Kayal             : Wick's Theorem for AUTO-CI, AUTO-CI UHF-CCSDT 
  Emily Kempfer          : AUTO-CI RHF CISDT and CCSDT, approximate NEVPT4
  Christian Kollmar      : KDIIS, OOCD, Brueckner-CCSD(T), CCSD density, CASPT2, CASPT2-K, improved NEVPT2 
  Axel Koslowski         : Symmetry handling                             
  Simone Kossmann        : meta-GGA functionals, TD-DFT gradient, OOMP2, (MP2 Hessian; deprecated post 5.0) 
  Lucas Lang             : DCDCAS, Hyperfine gauge corrections, ICE-SOC+SSC
  Marvin Lechner         : AUTO-CI (C++ implementation), FIC-MRCC        
  Spencer Leger          : CASSCF response                               
  Dagmar Lenk            : GEPOL surface, SMD, ORCA-2-JSON               
  Dimitrios Liakos       : Extrapolation schemes; Compound Job, Property file
  Dimitrios Manganas     : Further ROCIS development; embedding schemes. LFT, Crystal Embedding 
  Dimitrios Pantazis     : SARC Basis sets                               
  Anastasios Papadopoulos: AUTO-CI, single reference methods and gradients 
  Taras Petrenko         : pre 6.0 DFT Hessian and TD-DFT gradient,  ECA, NRVS 
  Petra Pikulova         : Analytic Raman intensities                    
  Peter Pinski           : DLPNO-MP2, DLPNO-MP2 Gradient                 
  Shashank Vittal Rao    : ES-AILFT, MagRelax                            
  Christoph Reimann      : Effective Core Potentials                     
  Marius Retegan         : Local ZFS, SOC                                
  Christoph Riplinger    : Optimizer, TS searches, QM/MM, DLPNO-CCSD(T), (RO)-DLPNO pert. Triples 
  Michael Roemelt        : Original ROCIS implementation, recursive CI coupling coefficients
  Masaaki Saitow         : Open-shell DLPNO-CCSD energy and density      
  Barbara Sandhoefer     : DKH picture change effects                    
  Yorick L. A. Schmerwitz: GMF and freeze-and-release deltaSCF, NEB S-IDPP initial path                    
  Kantharuban Sivalingam : CASSCF convergence/infrastructure, NEVPT2, NEVPT3, NEVPT4(SD), FIC-MRCI and CEPA variants
  Bernardo de Souza      : ESD, SOC TD-DFT                               
  Georgi L. Stoychev     : AutoAux, RI-MP2 NMR, DLPNO-MP2 response, X2C  
  Van Anh Tran           : RI-MP2 g-tensors                              
  Willem Van den Heuvel  : Paramagnetic NMR                              
  Zikuan Wang            : NOTCH, Electric field optimization            
  Frank Wennmohs         : Technical directorship and infrastructure     
  Hang Xu                : AUTO-CI-Response properties                   
                                                                         
[FACCTs GmbH]                                                            
  Markus Bursch, Nicolas Foglia, Miquel Garcia-Rates, Ingolf Harden, Hagen Neugebauer, Anastasios Papadopoulos, 
  Christoph Riplinger, Bernardo de Souza, Georgi L. Stoychev                                                    
                                                                 
  APM, various basis sets, CI-OPT, improved COSX, DLPNO-Multilevel,           
  DOCKER, DRACO, updates on ESD, Fragmentator, GOAT, IRC, LR-CPCM, L-BFGS, MBIS, meta-GGA TD-DFT gradient, ML-optimized integration grids, 
  MM, NACMEs, nearIR, NEB, NEB-TS, NL-DFT gradient (VV10), 2- and 3-layer-ONIOM, interface openCOSMO-RS, QMMM,   
  Crystal-QMMM, RESP, rigid body optimization, SF, symmetry and pop. for TD-DFT, various functionals, SOLVATOR                                   
                                                                         
[Other institutions]                                                     
  V. Asgeirsson          : NEB                                           
  Christoph Bannwarth    : sTDA-DFT, sTD-DFT, PBEh-3c, B97-3c, D3        
  Giovanni Bistoni       : ETS/NOCV, ADLD/ADEX, COVALED                  
  Martin Brehm           : Molecular dynamics                            
  Ronald Cardenas        : ETS/NOCV                                      
  Martina Colucci        : COVALED                                       
  Sebastian Ehlert       : rSCAN, r2SCAN, r2SCAN-3c, D4, dhf basis sets  
  Marvin Friede          : D4 for Fr, Ra, Ac-Lr                          
  Lars Goerigk           : TD-DFT with DH, B97 family of functionals     
  Stefan Grimme          : VdW corrections, initial TS optimization, DFT functionals, gCP, sTDA/sTD-DF 
  Waldemar Hujo          : DFT-NL                                        
  H. Jonsson             : NEB                                           
  Holger Kruse           : gCP                                           
  Marcel Mueller         : wB97X-3c, vDZP basis set                      
  Hagen Neugebauer       : wr2SCAN, Native XTB                           
  Gianluca Regni         : ADLD/ADEX                                     
  Tobias Risthaus        : pre 6.0 range-separated hybrid DFT and stability analysis
  Lukas Wittmann         : regularized MP2, r2SCAN double-hybrids, wr2SCAN        
                                                                         
We gratefully acknowledge several colleagues who have allowed us to      
interface, adapt or use parts of their codes:                            
  Ed Valeev, F. Pavosevic, A. Kumar             : LibInt (2-el integral package), F12 methods 
  Garnet Chan, S. Sharma, J. Yang, R. Olivares  : DMRG                   
  Ulf Ekstrom                                   : XCFun DFT Library      
  Mihaly Kallay                                 : mrcc  (arbitrary order and MRCC methods)
  Frank Weinhold                                : gennbo (NPA and NBO analysis)           
  Simon Mueller                                 : openCOSMO-RS                            
  Christopher J. Cramer and Donald G. Truhlar   : smd solvation model                     
  S Lehtola, MJT Oliveira, MAL Marques          : LibXC Library                           
  Liviu Ungur et al                             : ANISO software                          


 Your calculation uses the libint2 library for the computation of 2-el integrals
 For citations please refer to: http://libint.valeyev.net

 Your ORCA version has been built with support for libXC version: 7.0.0
 For citations please refer to: https://libxc.gitlab.io

 This ORCA versions uses:
   CBLAS   interface :  Fast vector & matrix operations
   LAPACKE interface :  Fast linear algebra routines
   SCALAPACK package :  Parallel linear algebra routines
   Shared memory     :  Shared parallel matrices
   BLAS/LAPACK       :  OpenBLAS 0.3.29  USE64BITINT DYNAMIC_ARCH NO_AFFINITY Zen SINGLE_THREADED
        Core in use  :  Zen
   Copyright (c) 2011-2014, The OpenBLAS Project


  ***********************************
  * Starting time: Fri Apr 17 12:14:22 2026
  * Host name:     vmi3233575
  * Process ID:    334719
  * Working dir.:  /root/orca_b12_vps_pack/jobs/01_xtb/mult_1
  ***********************************

NOTE: MaxCore=500 MB was set to SCF,MP2,MDCI,CIPSI,MRCI,RASCI and CIS
      => If you want to overwrite this, your respective input block should be placed after the MaxCore statement


***************************************
The coordinates will be read from file: ../../../starts/random_d2.10_007.xyz
***************************************


Your calculation utilizes the semiempirical GFN2-xTB method
Please cite in your paper:
Bannwarth, C.; Ehlert S.; Grimme, S. J. Chem. Theory Comput. 2019, 15, 1652.
   

================================================================================

================================================================================
                                        WARNINGS
                       Please study these warnings very carefully!
================================================================================


WARNING: Geometry Optimization
  ===> : Switching off AutoStart
         For restart on a previous wavefunction, please use MOREAD

WARNING: Found dipole moment calculation with XTB calculation
  ===> : Switching off dipole moment calculation

Environment variable XTBEXE for xtb has been set!

================================================================================
                                       INPUT FILE
================================================================================
NAME = random_d2.10_007_m1.inp
|  1> ! GFN2-xTB TightSCF TightOpt
|  2> 
|  3> %pal
|  4>   nprocs 1
|  5> end
|  6> 
|  7> %maxcore 500
|  8> 
|  9> * xyzfile 0 1 ../../../starts/random_d2.10_007.xyz
| 10> 
| 11>                          ****END OF INPUT****
================================================================================

                       *****************************
                       * Geometry Optimization Run *
                       *****************************

Geometry optimization settings:
Update method            Update   .... BFGS
Choice of coordinates    CoordSys .... (2022) Redundant Internals
Initial Hessian          InHess   .... Almloef's Model
Max. no of cycles        MaxIter  .... 50

Convergence Tolerances:
Energy Change            TolE     ....  1.0000e-06 Eh
Max. Gradient            TolMAXG  ....  1.0000e-04 Eh/bohr
RMS Gradient             TolRMSG  ....  3.0000e-05 Eh/bohr
Max. Displacement        TolMAXD  ....  1.0000e-03 bohr
RMS Displacement         TolRMSD  ....  6.0000e-04 bohr
Strict Convergence                .... False

------------------------------------------------------------------------------
                        ORCA OPTIMIZATION COORDINATE SETUP
------------------------------------------------------------------------------

The optimization will be done in redundant internal coordinates (2022)
Making redundant internal coordinates   ...  (2022 redundants) done
Evaluating the initial hessian          ...  (Almloef) done
Evaluating the coordinates              ...  done
Calculating the B-matrix                .... done
Calculating the G-matrix                .... done
The number of degrees of freedom        ....  392

    -----------------------------------------------------------------
                    Redundant Internal Coordinates


    -----------------------------------------------------------------
         Definition                    Initial Value    Approx d2E/dq
    -----------------------------------------------------------------
      1. B(B   2,B   1)                  2.7098         0.010000   
      2. B(B   3,B   2)                  2.1897         0.044408   
      3. B(B   3,B   1)                  2.3172         0.027802   
      4. B(B   3,B   0)                  1.5890         0.403535   
      5. B(B   4,B   3)                  2.2935         0.030336   
      6. B(B   4,B   0)                  2.4575         0.016608   
      7. B(B   4,B   1)                  2.7092         0.010000   
      8. B(B   5,B   2)                  3.2153         0.010000   
      9. B(B   5,B   0)                  2.9929         0.010000   
     10. B(B   5,B   3)                  3.1464         0.010000   
     11. B(B   6,B   5)                  1.6863         0.282293   
     12. B(B   6,B   0)                  2.6123         0.010000   
     13. B(B   6,B   3)                  3.3314         0.010000   
     14. B(B   7,B   0)                  3.3684         0.010000   
     15. B(B   7,B   3)                  3.1184         0.010000   
     16. B(B   8,B   4)                  2.6968         0.010000   
     17. B(B   9,B   8)                  3.9851         0.010000   
     18. B(B   9,B   3)                  3.6016         0.010000   
     19. B(B   9,B   4)                  3.5169         0.010000   
     20. B(B   9,B   1)                  3.1470         0.010000   
     21. B(B   9,B   0)                  3.8403         0.010000   
     22. B(B  10,B   0)                  2.6955         0.010000   
     23. B(B  10,B   7)                  1.8598         0.149207   
     24. B(B  10,B   3)                  3.2738         0.010000   
     25. B(B  10,B   6)                  2.7115         0.010000   
     26. B(B  11,B   1)                  3.5482         0.010000   
     27. B(B  11,B   8)                  3.1915         0.010000   
     28. B(B  11,B   4)                  2.9565         0.010000   
     29. A(B   5,B   0,B   9)           91.3588         0.103191   
     30. A(B   6,B   0,B   9)          123.6549         0.108474   
     31. A(B   3,B   0,B   5)           80.4218         0.181251   
     32. A(B   5,B   0,B   6)           34.1651         0.128395   
     33. A(B   6,B   0,B  10)           61.4169         0.139450   
     34. A(B   7,B   0,B  10)           33.4406         0.115905   
     35. A(B   7,B   0,B   9)          132.1104         0.099385   
     36. A(B   6,B   0,B   7)           84.8655         0.117830   
     37. A(B   3,B   0,B   4)           64.9718         0.232993   
     38. A(B   5,B   0,B  10)           89.6231         0.125764   
     39. A(B   4,B   0,B  10)          107.8402         0.146384   
     40. A(B   3,B   0,B  10)           96.2147         0.207140   
     41. A(B   4,B   0,B   5)          142.2874         0.133809   
     42. A(B   3,B   0,B   7)           67.2087         0.156512   
     43. A(B   4,B   0,B   6)          163.3745         0.150491   
     44. A(B   9,B   0,B  10)          165.1426         0.107173   
     45. A(B   3,B   0,B   9)           69.3634         0.134602   
     46. A(B   4,B   0,B   9)           63.5111         0.111150   
     47. A(B   4,B   0,B   7)           80.3983         0.121793   
     48. A(B   5,B   0,B   7)          100.3494         0.110009   
     49. A(B   3,B   0,B   6)          102.1639         0.215595   
     50. A(B   4,B   1,B   9)           73.3875         0.120976   
     51. A(B   3,B   1,B   4)           53.6088         0.152751   
     52. A(B   9,B   1,B  11)          117.7895         0.104917   
     53. A(B   3,B   1,B  11)           91.6520         0.120734   
     54. A(B   3,B   1,B   9)           80.9196         0.133296   
     55. A(B   2,B   1,B   3)           50.9153         0.152717   
     56. A(B   4,B   1,B  11)           54.4117         0.111908   
     57. A(B   2,B   1,B   4)          103.5086         0.134995   
     58. A(B   2,B   1,B  11)          117.3378         0.111895   
     59. A(B   2,B   1,B   9)          104.7186         0.120959   
     60. A(B   3,B   2,B   5)           68.1840         0.135533   
     61. A(B   1,B   2,B   5)          112.4369         0.119196   
     62. A(B   1,B   2,B   3)           55.2256         0.159841   
     63. A(B   1,B   3,B   5)          128.4256         0.133319   
     64. A(B   4,B   3,B  10)           95.2942         0.129660   
     65. A(B   0,B   3,B  10)           54.9354         0.162039   
     66. A(B   6,B   3,B   7)           78.2608         0.108519   
     67. A(B   9,B   3,B  10)          141.0320         0.102702   
     68. A(B   1,B   3,B   7)          118.0735         0.134364   
     69. A(B   1,B   3,B   2)           73.8590         0.187189   
     70. A(B   2,B   3,B   9)          103.9932         0.122749   
     71. A(B   2,B   3,B   4)          143.3431         0.189147   
     72. A(B   2,B   3,B   5)           71.5680         0.138275   
     73. A(B   0,B   3,B   1)          139.5790         0.250804   
     74. A(B   5,B   3,B   9)           93.4890         0.104233   
     75. A(B   0,B   3,B   5)           69.7119         0.170199   
     76. A(B   2,B   3,B  10)          108.5511         0.133323   
     77. A(B   0,B   3,B   7)           84.7719         0.172113   
     78. A(B   4,B   3,B   5)          142.6559         0.134203   
     79. A(B   2,B   3,B   7)           96.0465         0.139437   
     80. A(B   4,B   3,B   7)           88.5562         0.135268   
     81. A(B   0,B   3,B   4)           76.1416         0.254030   
     82. A(B   5,B   3,B   7)          102.6633         0.111765   
     83. A(B   0,B   3,B   2)          140.4354         0.268897   
     84. A(B   1,B   3,B  10)          150.9725         0.128865   
     85. A(B   5,B   3,B   6)           30.0032         0.108070   
     86. A(B   0,B   3,B   9)           86.2505         0.144614   
     87. A(B   6,B   3,B   9)          111.0559         0.102061   
     88. A(B   1,B   3,B   6)          158.4162         0.127000   
     89. A(B   5,B   3,B  10)           77.3814         0.109006   
     90. A(B   6,B   3,B  10)           48.4632         0.106153   
     91. A(B   7,B   3,B   9)          157.4611         0.104592   
     92. A(B   4,B   3,B   6)          125.1957         0.127757   
     93. A(B   2,B   3,B   6)           91.2361         0.131249   
     94. A(B   1,B   3,B   9)           59.6369         0.119354   
     95. A(B   7,B   3,B  10)           33.7185         0.109478   
     96. A(B   0,B   3,B   6)           50.0442         0.158621   
     97. A(B   1,B   3,B   4)           71.9699         0.179075   
     98. A(B   4,B   3,B   9)           69.2126         0.119960   
     99. A(B   9,B   4,B  11)          124.5582         0.108141   
    100. A(B   1,B   4,B   9)           59.0359         0.112511   
    101. A(B   0,B   4,B   9)           77.7770         0.117985   
    102. A(B   3,B   4,B   9)           73.2212         0.122219   
    103. A(B   8,B   4,B   9)           78.5662         0.112754   
    104. A(B   0,B   4,B   3)           38.8866         0.169160   
    105. A(B   0,B   4,B   1)           90.5247         0.145734   
    106. A(B   8,B   4,B  11)           68.5630         0.126853   
    107. A(B   1,B   4,B  11)           77.4127         0.126466   
    108. A(B   0,B   4,B  11)          138.8864         0.135188   
    109. A(B   3,B   4,B  11)          109.0759         0.141936   
    110. A(B   1,B   4,B   8)           90.4307         0.135495   
    111. A(B   0,B   4,B   8)          151.7313         0.146319   
    112. A(B   3,B   4,B   8)          142.9010         0.154693   
    113. A(B   1,B   4,B   3)           54.4213         0.154022   
    114. A(B   0,B   5,B   2)           69.9092         0.112862   
    115. A(B   2,B   5,B   6)          106.2072         0.159723   
    116. A(B   0,B   5,B   3)           29.8663         0.114268   
    117. A(B   3,B   5,B   6)           81.0821         0.163891   
    118. A(B   0,B   5,B   6)           60.4575         0.174084   
    119. A(B   2,B   5,B   3)           40.2480         0.110003   
    120. A(B   3,B   6,B  10)           64.6576         0.116378   
    121. A(B   0,B   6,B  10)           60.8020         0.138783   
    122. A(B   5,B   6,B  10)          130.3573         0.196521   
    123. A(B   0,B   6,B   3)           27.7919         0.118731   
    124. A(B   3,B   6,B   5)           68.9148         0.153212   
    125. A(B   0,B   6,B   5)           85.3774         0.205760   
    126. A(B   3,B   7,B  10)           77.7272         0.155355   
    127. A(B   0,B   7,B   3)           28.0194         0.107928   
    128. A(B   0,B   7,B  10)           53.0035         0.142900   
    129. A(B   4,B   8,B   9)           59.8820         0.105094   
    130. A(B   4,B   8,B  11)           59.5732         0.120134   
    131. A(B   9,B   8,B  11)          105.5954         0.099667   
    132. A(B   0,B   9,B   8)           79.3757         0.095219   
    133. A(B   3,B   9,B   8)           77.0081         0.096585   
    134. A(B   4,B   9,B   8)           41.5518         0.097138   
    135. A(B   1,B   9,B   8)           63.8292         0.100068   
    136. A(B   0,B   9,B   3)           24.3861         0.097555   
    137. A(B   0,B   9,B   4)           38.7119         0.098179   
    138. A(B   0,B   9,B   1)           62.5261         0.101484   
    139. A(B   3,B   9,B   4)           37.5662         0.100195   
    140. A(B   1,B   9,B   3)           39.4435         0.104225   
    141. A(B   1,B   9,B   4)           47.5765         0.105336   
    142. A(B   3,B  10,B   7)           68.5544         0.147312   
    143. A(B   0,B  10,B   6)           57.7811         0.135459   
    144. A(B   6,B  10,B   7)          124.9973         0.182072   
    145. A(B   0,B  10,B   7)           93.5559         0.183319   
    146. A(B   3,B  10,B   6)           66.8792         0.117723   
    147. A(B   0,B  10,B   3)           28.8499         0.118108   
    148. A(B   1,B  11,B   8)           69.1720         0.104340   
    149. A(B   1,B  11,B   4)           48.1756         0.107650   
    150. A(B   4,B  11,B   8)           51.8638         0.114088   
    151. D(B   5,B   2,B   1,B   3)     39.0861         0.010000   
    152. D(B   3,B   2,B   1,B  11)     67.7843         0.010000   
    153. D(B   5,B   2,B   1,B   4)     50.2078         0.010000   
    154. D(B   5,B   2,B   1,B  11)    106.8705         0.010000   
    155. D(B   3,B   2,B   1,B   9)    -64.9387         0.010000   
    156. D(B   3,B   2,B   1,B   4)     11.1217         0.010000   
    157. D(B   0,B   3,B   1,B   4)     39.5866         0.010000   
    158. D(B   5,B   3,B   2,B   1)    141.1182         0.010000   
    159. D(B   5,B   3,B   1,B   2)    -49.4774         0.010000   
    160. D(B   2,B   3,B   0,B   7)     93.1713         0.012752   
    161. D(B   4,B   3,B   1,B   2)    166.5265         0.010000   
    162. D(B   2,B   3,B   1,B  11)   -124.6426         0.010000   
    163. D(B   0,B   3,B   1,B  11)     81.4706         0.010000   
    164. D(B   6,B   3,B   2,B   5)     23.0403         0.010000   
    165. D(B   4,B   3,B   1,B   9)    -76.0030         0.010000   
    166. D(B   4,B   3,B   0,B  10)   -106.8141         0.012752   
    167. D(B   2,B   3,B   0,B   5)    -12.4052         0.012752   
    168. D(B   4,B   3,B   2,B   5)   -162.9015         0.010000   
    169. D(B   0,B   3,B   1,B   2)   -153.8868         0.010000   
    170. D(B   4,B   3,B   0,B   6)   -168.8549         0.012752   
    171. D(B   7,B   3,B   2,B   5)    101.3655         0.010000   
    172. D(B   2,B   3,B   1,B   9)    117.4704         0.010000   
    173. D(B   4,B   3,B   2,B   1)    -21.7833         0.010000   
    174. D(B   4,B   3,B   1,B  11)     41.8840         0.010000   
    175. D(B   0,B   3,B   2,B   5)     12.2626         0.010000   
    176. D(B   2,B   3,B   0,B   9)   -107.5255         0.012752   
    177. D(B   4,B   3,B   0,B   7)    -89.8002         0.012752   
    178. D(B   1,B   3,B   0,B   6)    152.5275         0.012752   
    179. D(B   0,B   3,B   1,B   9)    -36.4164         0.010000   
    180. D(B   2,B   3,B   0,B   4)   -177.0285         0.012752   
    181. D(B   4,B   3,B   0,B   5)    164.6233         0.012752   
    182. D(B   6,B   3,B   2,B   1)    164.1585         0.010000   
    183. D(B   0,B   3,B   2,B   1)    153.3808         0.010000   
    184. D(B   4,B   3,B   0,B   9)     69.5030         0.012752   
    185. D(B   2,B   3,B   0,B   6)     14.1166         0.012752   
    186. D(B   1,B   3,B   2,B   5)   -141.1182         0.010000   
    187. D(B   1,B   3,B   0,B   4)    -38.6176         0.012752   
    188. D(B   5,B   3,B   1,B   4)    143.9960         0.010000   
    189. D(B   2,B   3,B   1,B   4)   -166.5265         0.010000   
    190. D(B   2,B   3,B   0,B  10)     76.1574         0.012752   
    191. D(B   7,B   3,B   2,B   1)   -117.5163         0.010000   
    192. D(B   1,B   3,B   0,B   5)    126.0057         0.012752   
    193. D(B   1,B   4,B   0,B   9)    -58.0999         0.010000   
    194. D(B   3,B   4,B   1,B  11)   -124.8528         0.010000   
    195. D(B   0,B   4,B   1,B   3)    -15.4965         0.010000   
    196. D(B   1,B   4,B   0,B   5)     -5.0538         0.010000   
    197. D(B   0,B   4,B   1,B  11)   -140.3494         0.010000   
    198. D(B   1,B   4,B   0,B   7)     89.4822         0.010000   
    199. D(B   8,B   4,B   1,B   2)   -177.9631         0.010000   
    200. D(B   0,B   4,B   1,B   9)     75.3800         0.010000   
    201. D(B   0,B   4,B   3,B   2)    176.8296         0.010000   
    202. D(B   8,B   4,B   1,B   3)   -167.2437         0.010000   
    203. D(B   3,B   4,B   1,B   9)     90.8765         0.010000   
    204. D(B   1,B   4,B   0,B  10)    108.8328         0.010000   
    205. D(B   0,B   4,B   1,B   2)    -26.2160         0.010000   
    206. D(B   1,B   4,B   0,B   3)     20.2516         0.010000   
    207. D(B   3,B   4,B   0,B   7)     69.2305         0.010000   
    208. D(B   3,B   4,B   0,B  10)     88.5811         0.010000   
    209. D(B   3,B   4,B   0,B   5)    -25.3054         0.010000   
    210. D(B   3,B   4,B   0,B   6)     41.3315         0.010000   
    211. D(B   3,B   4,B   0,B   9)    -78.3515         0.010000   
    212. D(B   1,B   4,B   0,B   6)     61.5831         0.010000   
    213. D(B   3,B   4,B   1,B   2)    -10.7194         0.010000   
    214. D(B   1,B   4,B   3,B   6)   -165.2591         0.010000   
    215. D(B   1,B   4,B   3,B   5)   -130.6072         0.010000   
    216. D(B   0,B   4,B   3,B   7)    -84.9707         0.010000   
    217. D(B   0,B   4,B   3,B   9)     91.2381         0.010000   
    218. D(B   0,B   4,B   3,B  10)    -51.8939         0.010000   
    219. D(B   1,B   4,B   3,B   2)     22.0168         0.010000   
    220. D(B   0,B   4,B   3,B   6)    -10.4463         0.010000   
    221. D(B   0,B   4,B   3,B   5)     24.2056         0.010000   
    222. D(B   0,B   4,B   3,B   1)    154.8128         0.010000   
    223. D(B   1,B   4,B   3,B   7)    120.2165         0.010000   
    224. D(B   1,B   4,B   3,B  10)    153.2933         0.010000   
    225. D(B   1,B   4,B   3,B   0)   -154.8128         0.010000   
    226. D(B   0,B   5,B   3,B   6)     43.1973         0.010000   
    227. D(B   0,B   5,B   3,B   1)   -137.9685         0.010000   
    228. D(B   0,B   5,B   3,B   4)    -25.1131         0.010000   
    229. D(B   0,B   5,B   3,B   2)    171.7073         0.010000   
    230. D(B   6,B   5,B   3,B   9)   -127.8963         0.010000   
    231. D(B   6,B   5,B   3,B   4)    -68.3104         0.010000   
    232. D(B   0,B   5,B   2,B   1)    -38.2924         0.010000   
    233. D(B   6,B   5,B   3,B   1)    178.8343         0.010000   
    234. D(B   0,B   5,B   2,B   3)     -4.3861         0.010000   
    235. D(B   6,B   5,B   2,B   1)    -87.5198         0.010000   
    236. D(B   3,B   5,B   2,B   1)    -33.9063         0.010000   
    237. D(B   6,B   5,B   2,B   3)    -53.6134         0.010000   
    238. D(B   6,B   5,B   3,B   0)    -43.1973         0.010000   
    239. D(B   3,B   5,B   0,B   7)    -64.5219         0.010000   
    240. D(B   3,B   5,B   0,B  10)    -96.3670         0.010000   
    241. D(B   3,B   5,B   0,B   6)   -128.9866         0.010000   
    242. D(B   6,B   5,B   3,B   7)     36.2797         0.010000   
    243. D(B   3,B   5,B   0,B   4)     23.1277         0.010000   
    244. D(B   6,B   5,B   0,B   9)   -162.2073         0.010000   
    245. D(B   6,B   5,B   3,B   2)    128.5100         0.010000   
    246. D(B   6,B   5,B   0,B   7)     64.4647         0.010000   
    247. D(B   6,B   5,B   0,B  10)     32.6196         0.010000   
    248. D(B   6,B   5,B   0,B   4)    152.1143         0.010000   
    249. D(B   6,B   5,B   0,B   3)    128.9866         0.010000   
    250. D(B   6,B   5,B   3,B  10)     13.7849         0.010000   
    251. D(B  10,B   6,B   5,B   3)    -21.6182         0.010000   
    252. D(B  10,B   6,B   5,B   0)    -44.6855         0.010000   
    253. D(B   3,B   6,B   5,B   2)     31.7689         0.010000   
    254. D(B   0,B   6,B   5,B   2)     54.8361         0.010000   
    255. D(B   0,B   6,B   5,B   3)     23.0672         0.010000   
    256. D(B   0,B   6,B   3,B   5)   -123.1135         0.010000   
    257. D(B   0,B   6,B   3,B   4)     13.2764         0.010000   
    258. D(B   5,B   6,B   3,B   9)     57.5667         0.010000   
    259. D(B   0,B   6,B   3,B   1)   -125.5967         0.010000   
    260. D(B   5,B   6,B   3,B  10)   -161.9023         0.010000   
    261. D(B   5,B   6,B   3,B   7)   -143.8666         0.010000   
    262. D(B   5,B   6,B   3,B   1)     -2.4832         0.010000   
    263. D(B   5,B   6,B   3,B   4)    136.3900         0.010000   
    264. D(B   5,B   6,B   3,B   2)    -47.9473         0.010000   
    265. D(B   3,B   6,B   0,B  10)    -90.4969         0.010000   
    266. D(B   0,B   6,B   3,B   2)   -171.0609         0.010000   
    267. D(B   3,B   6,B   0,B   4)    -37.7447         0.010000   
    268. D(B   5,B   6,B   0,B   9)     21.5308         0.010000   
    269. D(B   5,B   6,B   0,B   7)   -116.9736         0.010000   
    270. D(B   3,B   6,B   0,B   5)     51.6338         0.010000   
    271. D(B   5,B   6,B   0,B  10)   -142.1307         0.010000   
    272. D(B   3,B   6,B   5,B   0)    -23.0672         0.010000   
    273. D(B   5,B   6,B   0,B   4)    -89.3785         0.010000   
    274. D(B   5,B   6,B   3,B   0)    123.1135         0.010000   
    275. D(B   5,B   6,B   0,B   3)    -51.6338         0.010000   
    276. D(B   3,B   6,B   0,B   7)    -65.3398         0.010000   
    277. D(B  10,B   7,B   0,B   3)   -148.1397         0.010000   
    278. D(B   0,B   7,B   3,B   1)    144.8470         0.010000   
    279. D(B   0,B   7,B   3,B   2)   -140.2432         0.010000   
    280. D(B  10,B   7,B   3,B   9)     92.4925         0.010000   
    281. D(B  10,B   7,B   3,B   6)    -24.6760         0.010000   
    282. D(B  10,B   7,B   3,B   1)    170.4059         0.010000   
    283. D(B  10,B   7,B   3,B   4)    101.7731         0.010000   
    284. D(B  10,B   7,B   3,B   2)   -114.6843         0.010000   
    285. D(B  10,B   7,B   3,B   0)     25.5589         0.010000   
    286. D(B   3,B   7,B   0,B   5)     74.9178         0.010000   
    287. D(B   3,B   7,B   0,B   6)    105.4995         0.010000   
    288. D(B  10,B   7,B   3,B   5)    -42.2666         0.010000   
    289. D(B   3,B   7,B   0,B   4)    -66.7756         0.010000   
    290. D(B  10,B   7,B   0,B   9)   -174.6165         0.010000   
    291. D(B  10,B   7,B   0,B   5)    -73.2219         0.010000   
    292. D(B   0,B   7,B   3,B   4)     76.2142         0.010000   
    293. D(B  10,B   7,B   0,B   6)    -42.6402         0.010000   
    294. D(B  10,B   7,B   0,B   4)    145.0847         0.010000   
    295. D(B   9,B   8,B   4,B   1)     58.2339         0.010000   
    296. D(B   9,B   8,B   4,B   0)    -33.6752         0.010000   
    297. D(B   9,B   8,B   4,B   3)     40.9130         0.010000   
    298. D(B  11,B   8,B   4,B   9)   -134.5195         0.010000   
    299. D(B  11,B   8,B   4,B   1)    -76.2856         0.010000   
    300. D(B  11,B   8,B   4,B   0)   -168.1947         0.010000   
    301. D(B  11,B   8,B   4,B   3)    -93.6065         0.010000   
    302. D(B   0,B   9,B   8,B   4)      9.8446         0.010000   
    303. D(B   3,B   9,B   8,B  11)     24.7049         0.010000   
    304. D(B   3,B   9,B   8,B   4)    -14.9612         0.010000   
    305. D(B   4,B   9,B   8,B  11)     39.6662         0.010000   
    306. D(B   1,B   9,B   8,B  11)    -14.9694         0.010000   
    307. D(B   0,B   9,B   4,B   3)     39.9555         0.010000   
    308. D(B   3,B   9,B   4,B  11)    101.9357         0.010000   
    309. D(B   3,B   9,B   4,B   8)    155.6314         0.010000   
    310. D(B   3,B   9,B   4,B   0)    -39.9555         0.010000   
    311. D(B   1,B   9,B   4,B  11)     43.7910         0.010000   
    312. D(B   1,B   9,B   4,B   8)     97.4867         0.010000   
    313. D(B   1,B   9,B   4,B   3)    -58.1447         0.010000   
    314. D(B   4,B   9,B   3,B   6)    120.9618         0.010000   
    315. D(B   4,B   9,B   3,B   5)    145.9753         0.010000   
    316. D(B   4,B   9,B   3,B   1)    -80.7172         0.010000   
    317. D(B   4,B   9,B   3,B   2)   -142.1599         0.010000   
    318. D(B   4,B   9,B   3,B   0)     76.5927         0.010000   
    319. D(B   1,B   9,B   3,B  10)    152.5142         0.010000   
    320. D(B   1,B   9,B   3,B   7)     90.6471         0.010000   
    321. D(B   1,B   9,B   3,B   6)   -158.3210         0.010000   
    322. D(B   1,B   9,B   3,B   5)   -133.3075         0.010000   
    323. D(B   1,B   9,B   3,B   4)     80.7172         0.010000   
    324. D(B   1,B   9,B   3,B   2)    -61.4427         0.010000   
    325. D(B   1,B   9,B   3,B   0)    157.3099         0.010000   
    326. D(B   0,B   9,B   1,B   4)    -44.2564         0.010000   
    327. D(B   0,B   9,B   1,B   3)     10.3414         0.010000   
    328. D(B   3,B   9,B   1,B  11)    -87.0636         0.010000   
    329. D(B   3,B   9,B   1,B   2)     45.4030         0.010000   
    330. D(B   3,B   9,B   1,B   4)    -54.5978         0.010000   
    331. D(B   4,B   9,B   1,B  11)    -32.4658         0.010000   
    332. D(B   1,B   9,B   4,B   0)    -98.1002         0.010000   
    333. D(B   4,B   9,B   1,B   2)    100.0008         0.010000   
    334. D(B   4,B   9,B   1,B   3)     54.5978         0.010000   
    335. D(B   4,B   9,B   0,B  10)    -57.0724         0.010000   
    336. D(B   3,B   9,B   4,B   1)     58.1447         0.010000   
    337. D(B   4,B   9,B   0,B   5)   -150.7278         0.010000   
    338. D(B   4,B   9,B   0,B   6)   -162.6251         0.010000   
    339. D(B   4,B   9,B   0,B   3)    -71.4930         0.010000   
    340. D(B   1,B   9,B   8,B   4)    -54.6355         0.010000   
    341. D(B   1,B   9,B   0,B   7)     10.0183         0.010000   
    342. D(B   1,B   9,B   0,B  10)     -1.6143         0.010000   
    343. D(B   1,B   9,B   0,B   5)    -95.2697         0.010000   
    344. D(B   1,B   9,B   0,B   6)   -107.1671         0.010000   
    345. D(B   1,B   9,B   0,B   4)     55.4581         0.010000   
    346. D(B   1,B   9,B   0,B   3)    -16.0350         0.010000   
    347. D(B   3,B  10,B   7,B   0)     14.7006         0.010000   
    348. D(B   6,B  10,B   7,B   0)     52.5125         0.010000   
    349. D(B   6,B  10,B   7,B   3)     37.8119         0.010000   
    350. D(B   3,B  10,B   6,B   5)     22.3558         0.010000   
    351. D(B   0,B  10,B   6,B   3)     31.0570         0.010000   
    352. D(B   0,B  10,B   6,B   5)     53.4128         0.010000   
    353. D(B   7,B  10,B   6,B   0)    -69.4068         0.010000   
    354. D(B   7,B  10,B   6,B   5)    -15.9940         0.010000   
    355. D(B   0,B  10,B   3,B   5)    -73.9199         0.010000   
    356. D(B   0,B  10,B   3,B   4)     68.9656         0.010000   
    357. D(B   0,B  10,B   3,B   2)   -139.2814         0.010000   
    358. D(B   7,B  10,B   3,B   9)   -142.4878         0.010000   
    359. D(B   7,B  10,B   3,B   6)    146.9018         0.010000   
    360. D(B   7,B  10,B   3,B   5)    137.7425         0.010000   
    361. D(B   7,B  10,B   3,B   1)    -17.6421         0.010000   
    362. D(B   7,B  10,B   3,B   4)    -79.3720         0.010000   
    363. D(B   7,B  10,B   3,B   2)     72.3810         0.010000   
    364. D(B   0,B  10,B   3,B   1)    130.6955         0.010000   
    365. D(B   7,B  10,B   3,B   0)   -148.3376         0.010000   
    366. D(B   6,B  10,B   0,B   7)   -129.7973         0.010000   
    367. D(B   6,B  10,B   0,B   5)    -20.1659         0.010000   
    368. D(B   7,B  10,B   6,B   3)    -38.3498         0.010000   
    369. D(B   6,B  10,B   0,B   4)   -166.1572         0.010000   
    370. D(B   6,B  10,B   0,B   3)   -100.4887         0.010000   
    371. D(B   7,B  10,B   0,B   9)     15.7502         0.010000   
    372. D(B   0,B  10,B   7,B   3)    -14.7006         0.010000   
    373. D(B   7,B  10,B   0,B   5)    109.6314         0.010000   
    374. D(B   7,B  10,B   0,B   6)    129.7973         0.010000   
    375. D(B   7,B  10,B   0,B   4)    -36.3598         0.010000   
    376. D(B   7,B  10,B   0,B   3)     29.3086         0.010000   
    377. D(B   1,B  11,B   8,B   9)     12.7086         0.010000   
    378. D(B   1,B  11,B   8,B   4)     52.5246         0.010000   
    379. D(B   4,B  11,B   8,B   9)    -39.8161         0.010000   
    380. D(B   1,B  11,B   4,B   0)     76.0204         0.010000   
    381. D(B   1,B  11,B   4,B   3)     44.9272         0.010000   
    382. D(B   8,B  11,B   4,B   9)     58.0593         0.010000   
    383. D(B   8,B  11,B   4,B   1)     95.5059         0.010000   
    384. D(B   8,B  11,B   4,B   0)    171.5264         0.010000   
    385. D(B   8,B  11,B   4,B   3)    140.4331         0.010000   
    386. D(B   8,B  11,B   1,B   2)   -144.2223         0.010000   
    387. D(B   8,B  11,B   1,B   4)    -56.8934         0.010000   
    388. D(B   1,B  11,B   4,B   8)    -95.5059         0.010000   
    389. D(B   8,B  11,B   1,B   3)    -98.2591         0.010000   
    390. D(B   4,B  11,B   1,B   9)     39.2374         0.010000   
    391. D(B   4,B  11,B   1,B   2)    -87.3290         0.010000   
    392. D(B   4,B  11,B   1,B   3)    -41.3658         0.010000   
    -----------------------------------------------------------------

Number of atoms                         .... 12
Number of degrees of freedom            .... 392


         *************************************************************
         *                GEOMETRY OPTIMIZATION CYCLE   1            *
         *************************************************************
---------------------------------
CARTESIAN COORDINATES (ANGSTROEM)
---------------------------------
  B     0.961793    1.049155   -0.179552
  B    -0.702959   -1.938256    1.163804
  B     0.480007   -2.314986   -1.244889
  B     0.264146   -0.376814   -0.249008
  B    -0.953522    0.754076    1.331608
  B     3.088593   -0.475567   -1.632028
  B     2.541510    0.990962   -2.259310
  B    -1.527447    0.923336   -2.445425
  B    -2.019277    0.521570    3.797978
  B     1.612770   -0.934550    3.043670
  B     0.020699    1.949680   -2.539405
  B    -3.766315   -0.148605    1.212558

----------------------------
CARTESIAN COORDINATES (A.U.)
----------------------------
  NO LB    ZA    FRAG    MASS        X           Y           Z
   0 B   5.0000    0    10.810    1.817526    1.982615   -0.339303
   1 B   5.0000    0    10.810   -1.328399   -3.662773    2.199271
   2 B   5.0000    0    10.810    0.907082   -4.374690   -2.352500
   3 B   5.0000    0    10.810    0.499164   -0.712076   -0.470557
   4 B   5.0000    0    10.810   -1.801896    1.424998    2.516374
   5 B   5.0000    0    10.810    5.836595   -0.898692   -3.084085
   6 B   5.0000    0    10.810    4.802757    1.872647   -4.269478
   7 B   5.0000    0    10.810   -2.886456    1.744852   -4.621183
   8 B   5.0000    0    10.810   -3.815880    0.985625    7.177137
   9 B   5.0000    0    10.810    3.047693   -1.766043    5.751702
  10 B   5.0000    0    10.810    0.039116    3.684361   -4.798780
  11 B   5.0000    0    10.810   -7.117303   -0.280824    2.291402

      -----------------------------------------------------------      
     |                   =====================                   |     
     |                           x T B                           |     
     |                   =====================                   |     
     |                         S. Grimme                         |     
     |          Mulliken Center for Theoretical Chemistry        |     
     |                    University of Bonn                     |     
      -----------------------------------------------------------      

   * xtb version 6.6.1 (unknown) compiled by 'builduser@buildhost' on 2023-08-07

   xtb is free software: you can redistribute it and/or modify it under
   the terms of the GNU Lesser General Public License as published by
   the Free Software Foundation, either version 3 of the License, or
   (at your option) any later version.
   
   xtb is distributed in the hope that it will be useful,
   but WITHOUT ANY WARRANTY; without even the implied warranty of
   MERCHANTABILITY or FITNESS FOR A PARTICULAR PURPOSE.  See the
   GNU Lesser General Public License for more details.
   
   Cite this work as:
   * C. Bannwarth, E. Caldeweyher, S. Ehlert, A. Hansen, P. Pracht,
     J. Seibert, S. Spicher, S. Grimme, WIREs Comput. Mol. Sci., 2020, 11,
     e01493. DOI: 10.1002/wcms.1493
   
   for GFN2-xTB:
   * C. Bannwarth, S. Ehlert and S. Grimme., J. Chem. Theory Comput., 2019,
     15, 1652-1671. DOI: 10.1021/acs.jctc.8b01176
   for GFN1-xTB:
   * S. Grimme, C. Bannwarth, P. Shushkov, J. Chem. Theory Comput., 2017,
     13, 1989-2009. DOI: 10.1021/acs.jctc.7b00118
   for GFN0-xTB:
   * P. Pracht, E. Caldeweyher, S. Ehlert, S. Grimme, ChemRxiv, 2019, preprint.
     DOI: 10.26434/chemrxiv.8326202.v1
   for GFN-FF:
   * S. Spicher and S. Grimme, Angew. Chem. Int. Ed., 2020, 59, 15665-15673.
     DOI: 10.1002/anie.202004239
   
   for ALPB and GBSA implicit solvation:
   * S. Ehlert, M. Stahn, S. Spicher, S. Grimme, J. Chem. Theory Comput.,
     2021, 17, 4250-4261. DOI: 10.1021/acs.jctc.1c00471
   
   for DFT-D4:
   * E. Caldeweyher, C. Bannwarth and S. Grimme, J. Chem. Phys., 2017,
     147, 034112. DOI: 10.1063/1.4993215
   * E. Caldeweyher, S. Ehlert, A. Hansen, H. Neugebauer, S. Spicher,
     C. Bannwarth and S. Grimme, J. Chem. Phys., 2019, 150, 154122.
     DOI: 10.1063/1.5090222
   * E. Caldeweyher, J.-M. Mewes, S. Ehlert and S. Grimme, Phys. Chem. Chem. Phys.
     2020, 22, 8499-8512. DOI: 10.1039/D0CP00502A
   
   for sTDA-xTB:
   * S. Grimme and C. Bannwarth, J. Chem. Phys., 2016, 145, 054103.
     DOI: 10.1063/1.4959605
   
   in the mass-spec context:
   * V. Asgeirsson, C. Bauer and S. Grimme, Chem. Sci., 2017, 8, 4879.
     DOI: 10.1039/c7sc00601b
   * J. Koopman and S. Grimme, ACS Omega 2019, 4, 12, 15120-15133.
     DOI: 10.1021/acsomega.9b02011
   
   for metadynamics refer to:
   * S. Grimme, J. Chem. Theory Comput., 2019, 155, 2847-2862
     DOI: 10.1021/acs.jctc.9b00143
   
   for SPH calculations refer to:
   * S. Spicher and S. Grimme, J. Chem. Theory Comput., 2021, 17, 1701-1714
     DOI: 10.1021/acs.jctc.0c01306
   
   with help from (in alphabetical order)
   P. Atkinson, C. Bannwarth, F. Bohle, G. Brandenburg, E. Caldeweyher
   M. Checinski, S. Dohm, S. Ehlert, S. Ehrlich, I. Gerasimov, C. Hölzer
   A. Katbashev, J. Koopman, C. Lavigne, S. Lehtola, F. März, M. Müller,
   F. Musil, H. Neugebauer, J. Pisarek, C. Plett, P. Pracht, F. Pultar,
   J. Seibert, P. Shushkov, S. Spicher, M. Stahn, M. Steiner, T. Strunk,
   J. Stückrath, T. Rose, and J. Unsleber
   
 * started run on 2026/04/17 at 12:14:23.082     

           -------------------------------------------------
          |                Calculation Setup                |
           -------------------------------------------------

          program call               : /usr/bin/xtb random_d2.10_007_m1_XTB.xyz --grad -c 0 -u 0 -P 1 --namespace random_d2.10_007_m1 --input random_d2.10_007_m1_XTB.input.tmp --acc 0.200000
          calculation namespace      : random_d2.10_007_m1
          coordinate file            : random_d2.10_007_m1_XTB.xyz
          omp threads                :                     1

   ID    Z sym.   atoms
    1    5 B      1-12

molecular fragmentation (1/2 indicates fragments):
122122222222
# atoms in fragment 1/2:     2    10
 fragment masses (1/2) :       21.62      108.11
CMA distance (Bohr)    :   1.658
constraining FC (au)   :  0.0500

           -------------------------------------------------
          |                 G F N 2 - x T B                 |
           -------------------------------------------------

        Reference                      10.1021/acs.jctc.8b01176
      * Hamiltonian:
        H0-scaling (s, p, d)           1.850000    2.230000    2.230000
        zeta-weighting                 0.500000
      * Dispersion:
        s8                             2.700000
        a1                             0.520000
        a2                             5.000000
        s9                             5.000000
      * Repulsion:
        kExp                           1.500000    1.000000
        rExp                           1.000000
      * Coulomb:
        alpha                          2.000000
        third order                    shell-resolved
        anisotropic                    true
        a3                             3.000000
        a5                             4.000000
        cn-shift                       1.200000
        cn-exp                         4.000000
        max-rad                        5.000000


          ...................................................
          :                      SETUP                      :
          :.................................................:
          :  # basis functions                  48          :
          :  # atomic orbitals                  48          :
          :  # shells                           24          :
          :  # electrons                        36          :
          :  max. iterations                   250          :
          :  Hamiltonian                  GFN2-xTB          :
          :  restarted?                      false          :
          :  GBSA solvation                  false          :
          :  PC potential                    false          :
          :  electronic temp.          300.0000000     K    :
          :  accuracy                    0.2000000          :
          :  -> integral cutoff          0.3198970E+02      :
          :  -> integral neglect         0.2000000E-08      :
          :  -> SCF convergence          0.2000000E-06 Eh   :
          :  -> wf. convergence          0.2000000E-04 e    :
          :  Broyden damping             0.4000000          :
          ...................................................

 iter      E             dE          RMSdq      gap      omega  full diag
   1    -12.1970713 -0.121971E+02  0.176E+01    0.02       0.0  T
   2     11.0374021  0.232345E+02  0.256E+01    0.03       1.0  T
   3     30.1712543  0.191339E+02  0.307E+01    0.27       1.0  T
   4      4.5441073 -0.256271E+02  0.213E+01    0.50       1.0  T
   5      2.2106282 -0.233348E+01  0.220E+01    0.05       1.0  T
   6      2.3815797  0.170951E+00  0.209E+01    0.17       1.0  T
   7     -7.1180750 -0.949965E+01  0.145E+01    0.29       1.0  T
   8     -3.3506864  0.376739E+01  0.182E+01    0.28       1.0  T
   9     -1.1286423  0.222204E+01  0.166E+01    0.17       1.0  T
  10    -10.0955284 -0.896689E+01  0.121E+01    0.09       1.0  T
  11    -10.3462469 -0.250719E+00  0.109E+01    0.08       1.0  T
  12     -9.1887421  0.115750E+01  0.109E+01    0.14       1.0  T
  13     -9.7257591 -0.537017E+00  0.976E+00    0.07       1.0  T
  14     -9.7923525 -0.665933E-01  0.970E+00    0.06       1.0  T
  15     -9.6347492  0.157603E+00  0.961E+00    0.08       1.0  T
  16    -11.6465737 -0.201182E+01  0.854E+00    0.04       1.0  T
  17    -12.0034189 -0.356845E+00  0.876E+00    0.08       1.0  T
  18    -12.1709557 -0.167537E+00  0.852E+00    0.10       1.0  T
  19    -12.2259647 -0.550090E-01  0.843E+00    0.11       1.0  T
  20    -12.1886302  0.373345E-01  0.858E+00    0.08       1.0  T
  21    -12.1876978  0.932476E-03  0.858E+00    0.08       1.0  T
  22    -12.2169179 -0.292201E-01  0.862E+00    0.11       1.0  T
  23    -12.1802794  0.366385E-01  0.875E+00    0.12       1.0  T
  24    -12.1763950  0.388438E-02  0.876E+00    0.11       1.0  T
  25    -12.1786927 -0.229770E-02  0.874E+00    0.12       1.0  T
  26    -12.1827398 -0.404708E-02  0.870E+00    0.11       1.0  T
  27    -12.2446465 -0.619067E-01  0.817E+00    0.10       1.0  T
  28    -12.2501041 -0.545763E-02  0.803E+00    0.11       1.0  T
  29    -11.8858972  0.364207E+00  0.819E+00    0.04       1.0  T
  30    -12.0536856 -0.167788E+00  0.764E+00    0.07       1.0  T
  31    -12.1679104 -0.114225E+00  0.698E+00    0.10       1.0  T
  32    -12.0490688  0.118842E+00  0.672E+00    0.08       1.0  T
  33    -11.8884383  0.160630E+00  0.712E+00    0.07       1.0  T
  34    -11.7486880  0.139750E+00  0.680E+00    0.02       1.0  T
  35    -11.7549625 -0.627453E-02  0.642E+00    0.04       1.0  T
  36    -12.2245016 -0.469539E+00  0.506E+00    0.06       1.0  T
  37    -12.2234032  0.109838E-02  0.504E+00    0.06       1.0  T
  38    -12.2462246 -0.228214E-01  0.508E+00    0.07       1.0  T
  39    -12.2413820  0.484258E-02  0.515E+00    0.07       1.0  T
  40    -12.2738397 -0.324577E-01  0.503E+00    0.07       1.0  T
  41    -12.2354105  0.384292E-01  0.518E+00    0.07       1.0  T
  42    -12.3172203 -0.818098E-01  0.480E+00    0.07       1.0  T
  43    -12.3836133 -0.663930E-01  0.427E+00    0.04       1.0  T
  44    -12.2993716  0.842417E-01  0.457E+00    0.04       1.0  T
  45    -12.3804557 -0.810841E-01  0.417E+00    0.04       1.0  T
  46    -12.5310196 -0.150564E+00  0.335E+00    0.04       1.0  T
  47    -12.5765702 -0.455506E-01  0.307E+00    0.04       1.0  T
  48    -12.5767716 -0.201440E-03  0.307E+00    0.04       1.0  T
  49    -12.5785814 -0.180977E-02  0.289E+00    0.04       1.0  T
  50    -12.6412445 -0.626631E-01  0.231E+00    0.04       1.0  T
  51    -12.6517921 -0.105476E-01  0.221E+00    0.04       1.0  T
  52    -12.6583226 -0.653049E-02  0.217E+00    0.04       1.0  T
  53    -12.6629439 -0.462128E-02  0.210E+00    0.04       1.0  T
  54    -12.6779029 -0.149590E-01  0.163E+00    0.05       1.0  T
  55    -12.6863431 -0.844017E-02  0.148E+00    0.06       1.0  T
  56    -12.6828801  0.346300E-02  0.155E+00    0.05       1.0  T
  57    -12.6905300 -0.764986E-02  0.117E+00    0.06       1.0  T
  58    -12.6915271 -0.997129E-03  0.102E+00    0.06       1.0  T
  59    -12.6880810  0.344606E-02  0.105E+00    0.06       1.0  T
  60    -12.6930560 -0.497501E-02  0.906E-01    0.06       1.0  T
  61    -12.6996952 -0.663916E-02  0.658E-01    0.06       1.0  T
  62    -12.7018999 -0.220465E-02  0.545E-01    0.06       1.0  T
  63    -12.7013786  0.521265E-03  0.569E-01    0.06       1.0  T
  64    -12.7011992  0.179355E-03  0.584E-01    0.06       1.0  T
  65    -12.7011889  0.103886E-04  0.549E-01    0.06       1.0  T
  66    -12.7011252  0.636962E-04  0.549E-01    0.06       1.0  T
  67    -12.7013111 -0.185928E-03  0.528E-01    0.06       1.0  T
  68    -12.7020560 -0.744874E-03  0.446E-01    0.06       1.0  T
  69    -12.7028453 -0.789341E-03  0.379E-01    0.06       1.0  T
  70    -12.7026003  0.244976E-03  0.377E-01    0.06       1.0  T
  71    -12.7027171 -0.116818E-03  0.357E-01    0.06       1.0  T
  72    -12.7027914 -0.742190E-04  0.318E-01    0.06       1.0  T
  73    -12.7031969 -0.405530E-03  0.274E-01    0.06       1.0  T
  74    -12.7033404 -0.143498E-03  0.252E-01    0.06       1.0  T
  75    -12.7034511 -0.110706E-03  0.220E-01    0.06       1.0  T
  76    -12.7035537 -0.102583E-03  0.199E-01    0.06       1.0  T
  77    -12.7038297 -0.275974E-03  0.140E-01    0.06       1.0  T
  78    -12.7039965 -0.166827E-03  0.938E-02    0.06       1.0  T
  79    -12.7040609 -0.644484E-04  0.752E-02    0.06       1.0  T
  80    -12.7040695 -0.853702E-05  0.726E-02    0.06       1.0  T
  81    -12.7040683  0.115959E-05  0.712E-02    0.06       1.0  T
  82    -12.7040699 -0.160125E-05  0.643E-02    0.06       1.0  T
  83    -12.7040688  0.110493E-05  0.621E-02    0.06       1.0  T
  84    -12.7040745 -0.573671E-05  0.567E-02    0.06       1.0  T
  85    -12.7040869 -0.123733E-04  0.426E-02    0.06       1.0  T
  86    -12.7040914 -0.445536E-05  0.361E-02    0.06       1.0  T
  87    -12.7040964 -0.503248E-05  0.261E-02    0.06       1.1  T
  88    -12.7040976 -0.121032E-05  0.206E-02    0.06       1.4  T
  89    -12.7040991 -0.150220E-05  0.120E-02    0.06       2.4  T
  90    -12.7041003 -0.117593E-05  0.591E-03    0.06       4.9  T
  91    -12.7041005 -0.165913E-06  0.444E-03    0.06       6.5  T
  92    -12.7041005 -0.239181E-07  0.317E-03    0.06       9.1  T
  93    -12.7041005 -0.107756E-07  0.267E-03    0.06      10.8  T
  94    -12.7041005 -0.319353E-07  0.182E-03    0.06      15.8  T
  95    -12.7041005 -0.253018E-07  0.136E-03    0.06      21.2  T
  96    -12.7041005  0.118019E-09  0.122E-03    0.06      23.6  T
  97    -12.7041006 -0.182802E-07  0.895E-04    0.06      32.3  T
  98    -12.7041006 -0.275892E-08  0.811E-04    0.06      35.6  T
  99    -12.7041006 -0.113289E-08  0.711E-04    0.06      40.6  T
 100    -12.7041006 -0.308274E-08  0.514E-04    0.06      56.1  T
 101    -12.7041006 -0.780579E-09  0.443E-04    0.06      65.1  T
 102    -12.7041006 -0.538432E-09  0.358E-04    0.06      80.7  T
 103    -12.7041006 -0.469077E-09  0.320E-04    0.06      90.3  T
 104    -12.7041006 -0.587619E-11  0.282E-04    0.06     102.2  T
 105    -12.7041006 -0.152321E-09  0.204E-04    0.06     141.4  T
 106    -12.7041006 -0.358309E-10  0.158E-04    0.06     182.5  T
 107    -12.7041006 -0.185283E-09  0.750E-05    0.06     384.7  T

   *** convergence criteria satisfied after 107 iterations ***

         #    Occupation            Energy/Eh            Energy/eV
      -------------------------------------------------------------
         1        2.0000           -0.4100067             -11.1569
       ...           ...                  ...                  ...
        12        2.0000           -0.2847924              -7.7496
        13        2.0000           -0.2807426              -7.6394
        14        2.0000           -0.2755343              -7.4977
        15        2.0000           -0.2730925              -7.4312
        16        1.9995           -0.2663801              -7.2486
        17        1.9980           -0.2651660              -7.2155
        18        1.5041           -0.2596424              -7.0652 (HOMO)
        19        0.4658           -0.2574557              -7.0057 (LUMO)
        20        0.0252           -0.2544464              -6.9238
        21        0.0070           -0.2532163              -6.8904
        22        0.0003           -0.2503372              -6.8120
        23        0.0001           -0.2486578              -6.7663
       ...           ...                  ...                  ...
        48                          0.5989228              16.2975
      -------------------------------------------------------------
                  HL-Gap            0.0021867 Eh            0.0595 eV
             Fermi-level           -0.2585883 Eh           -7.0365 eV

 SCC (total)                   0 d,  0 h,  0 min,  0.146 sec
 SCC setup                      ...        0 min,  0.000 sec (  0.322%)
 Dispersion                     ...        0 min,  0.000 sec (  0.058%)
 classical contributions        ...        0 min,  0.000 sec (  0.023%)
 integral evaluation            ...        0 min,  0.002 sec (  1.680%)
 iterations                     ...        0 min,  0.137 sec ( 93.994%)
 molecular gradient             ...        0 min,  0.005 sec (  3.753%)
 printout                       ...        0 min,  0.000 sec (  0.151%)

         :::::::::::::::::::::::::::::::::::::::::::::::::::::
         ::                     SUMMARY                     ::
         :::::::::::::::::::::::::::::::::::::::::::::::::::::
         :: total energy             -12.681830099765 Eh    ::
         :: gradient norm              0.243036319751 Eh/a0 ::
         :: HOMO-LUMO gap              0.059504050202 eV    ::
         ::.................................................::
         :: SCC energy               -12.704100571826 Eh    ::
         :: -> isotropic ES            0.033628255006 Eh    ::
         :: -> anisotropic ES          0.000014395727 Eh    ::
         :: -> anisotropic XC         -0.034306444725 Eh    ::
         :: -> dispersion             -0.025109642746 Eh    ::
         :: repulsion energy           0.022046343672 Eh    ::
         :: add. restraining           0.000000000000 Eh    ::
         :: total charge              -0.000000000019 e     ::
         :::::::::::::::::::::::::::::::::::::::::::::::::::::


Property printout bound to 'properties.out'

           -------------------------------------------------
          | TOTAL ENERGY              -12.681830099765 Eh   |
          | GRADIENT NORM               0.243036319751 Eh/α |
          | HOMO-LUMO GAP               0.059504050202 eV   |
           -------------------------------------------------

------------------------------------------------------------------------
 * finished run on 2026/04/17 at 12:14:23.239     
------------------------------------------------------------------------
 total:
 * wall-time:     0 d,  0 h,  0 min,  0.157 sec
 *  cpu-time:     0 d,  0 h,  0 min,  0.157 sec
 * ratio c/w:     0.999 speedup
 SCF:
 * wall-time:     0 d,  0 h,  0 min,  0.146 sec
 *  cpu-time:     0 d,  0 h,  0 min,  0.146 sec
 * ratio c/w:     0.999 speedup


-------------------------   --------------------
FINAL SINGLE POINT ENERGY       -12.681830099760
-------------------------   --------------------


-------------
DIPOLE MOMENT
-------------
                                X             Y             Z
Total Dipole Moment    :      1.07700       2.09200      -0.94600
                        -----------------------------------------
Magnitude (a.u.)       :      2.53600
Magnitude (Debye)      :      6.44601


------------------
CARTESIAN GRADIENT
------------------

   1   B   :    0.034979083    0.039586307    0.036265070
   2   B   :   -0.032745684   -0.054172874    0.029165807
   3   B   :    0.006996163   -0.047825232   -0.040558255
   4   B   :    0.012339593    0.005663187   -0.022586765
   5   B   :   -0.002722987    0.051024919   -0.012860689
   6   B   :    0.043489064   -0.086178933    0.036546744
   7   B   :    0.018176239    0.070165072   -0.052995859
   8   B   :   -0.087052783   -0.051329481    0.000090586
   9   B   :   -0.015800036   -0.002381193    0.055503268
  10   B   :    0.022069968    0.003109126    0.014861679
  11   B   :    0.032629176    0.079167905   -0.033961306
  12   B   :   -0.032357796   -0.006828802   -0.009470280

Difference to translation invariance:
           :    0.0000000000    0.0000000000   -0.0000000000

Difference to rotation invariance:
           :   -0.0000000234    0.0000000231   -0.0000001107

Norm of the Cartesian gradient     ...    0.2430363198
RMS gradient                       ...    0.0405060533
MAX gradient                       ...    0.0870527832
------------------------------------------------------------------------------
                         ORCA GEOMETRY RELAXATION STEP
------------------------------------------------------------------------------

Reading the OPT-File                    .... done
Getting information on internals        .... done
Copying old internal coords+grads       .... done
Making the new internal coordinates     .... (2022 redundants) done
Validating the new internal coordinates .... (2022 redundants) done
Calculating the B-matrix                .... done
Calculating the G,G- and P matrices     .... done
Transforming gradient to internals      .... done
Projecting the internal gradient        .... done
Number of atoms                         ....  12
Number of internal coordinates          .... 392
Current Energy                          ....   -12.681830100 Eh
Current gradient norm                   ....     0.243036320 Eh/bohr
Maximum allowed component of the step   ....  0.300
Current trust radius                    ....  0.300
Evaluating the initial hessian          ....  (Almloef) done
Projecting the Hessian                  .... done
Forming the augmented Hessian           .... done
Diagonalizing the augmented Hessian     .... done
Last element of RFO vector              ....  0.767772113
Lowest eigenvalues of augmented Hessian:
 -0.115699138  0.011717497  0.013880866  0.014237539  0.014872976
Length of the computed step             ....  0.834522385
Warning: the length of the step is outside the trust region - taking restricted step instead
The input lambda is                     ....     0.010004
   iter:   5  x=    0.001706  g=36067.078182 f(x)=   122.126214
   iter:  10  x=   -0.081902  g=   70.118508 f(x)=     2.395507
   iter:  15  x=   -0.404450  g=    0.495244 f(x)=     0.017235
The output lambda is                    ....    -0.409396 (19 iterations)
The final length of the internal step   ....  0.300000000
Converting the step to Cartesian space:
 Initial RMS(Int)=    0.0151522882
Transforming coordinates:
 Iter   0:  RMS(Cart)=    0.0358655722 RMS(Int)=    0.0151452369
done
Storing new coordinates                 .... done

                                .--------------------.
          ----------------------|Geometry convergence|-------------------------
          Item                value                   Tolerance       Converged
          ---------------------------------------------------------------------
          RMS gradient        0.0073971630            0.0000300000      NO
          MAX gradient        0.0570439926            0.0001000000      NO
          RMS step            0.0151522882            0.0006000000      NO
          MAX step            0.1097724146            0.0010000000      NO
          -------------------------------------------------------------------------
          ........................................................
          Max(Bonds)      0.0581      Max(Angles)    1.13
          Max(Dihed)        1.18      Max(Improp)    0.00
          ---------------------------------------------------------------------

The optimization has not yet converged - more geometry cycles are needed


    ---------------------------------------------------------------------------
                         Redundant Internal Coordinates
                            (Angstroem and degrees)

        Definition                    Value    dE/dq     Step     New-Value
    ----------------------------------------------------------------------------
     1. B(B   2,B   1)                2.7098  0.029426 -0.0372    2.6727   
     2. B(B   3,B   2)                2.1897  0.035491 -0.0408    2.1490   
     3. B(B   3,B   1)                2.3172  0.024651 -0.0309    2.2863   
     4. B(B   3,B   0)                1.5890  0.019806 -0.0178    1.5712   
     5. B(B   4,B   3)                2.2935  0.018147 -0.0222    2.2712   
     6. B(B   4,B   0)                2.4575  0.020280 -0.0232    2.4343   
     7. B(B   4,B   1)                2.7092  0.026393 -0.0310    2.6782   
     8. B(B   5,B   2)                3.2153  0.010786 -0.0141    3.2011   
     9. B(B   5,B   0)                2.9929  0.024102 -0.0257    2.9673   
    10. B(B   5,B   3)                3.1464  0.007981 -0.0102    3.1363   
    11. B(B   6,B   5)                1.6863  0.057044 -0.0510    1.6352   
    12. B(B   6,B   0)                2.6123  0.015119 -0.0194    2.5930   
    13. B(B   6,B   3)                3.3314  0.025118 -0.0265    3.3049   
    14. B(B   7,B   0)                3.3684  0.025958 -0.0294    3.3390   
    15. B(B   7,B   3)                3.1184  0.007939 -0.0108    3.1076   
    16. B(B   8,B   4)                2.6968  0.035073 -0.0431    2.6537   
    17. B(B   9,B   8)                3.9851  0.014584 -0.0189    3.9662   
    18. B(B   9,B   3)                3.6016  0.004447 -0.0072    3.5944   
    19. B(B   9,B   4)                3.5169  0.005387 -0.0071    3.5098   
    20. B(B   9,B   1)                3.1470  0.017108 -0.0200    3.1271   
    21. B(B   9,B   0)                3.8403  0.004230 -0.0051    3.8352   
    22. B(B  10,B   0)                2.6955  0.014324 -0.0188    2.6766   
    23. B(B  10,B   7)                1.8598  0.056932 -0.0581    1.8017   
    24. B(B  10,B   3)                3.2738  0.027812 -0.0302    3.2436   
    25. B(B  10,B   6)                2.7115  0.007083 -0.0137    2.6978   
    26. B(B  11,B   1)                3.5482  0.010229 -0.0136    3.5346   
    27. B(B  11,B   8)                3.1915  0.019167 -0.0244    3.1671   
    28. B(B  11,B   4)                2.9565  0.017572 -0.0219    2.9346   
    29. A(B   5,B   0,B   9)           91.36 -0.006549    0.60     91.96   
    30. A(B   6,B   0,B   9)          123.65  0.001673   -0.13    123.53   
    31. A(B   3,B   0,B   5)           80.42 -0.007026    0.70     81.12   
    32. A(B   5,B   0,B   6)           34.17  0.008930   -0.81     33.35   
    33. A(B   6,B   0,B  10)           61.42 -0.001840    0.15     61.56   
    34. A(B   7,B   0,B  10)           33.44  0.008301   -0.88     32.56   
    35. A(B   7,B   0,B   9)          132.11 -0.007187    0.72    132.83   
    36. A(B   6,B   0,B   7)           84.87  0.003843   -0.44     84.42   
    37. A(B   3,B   0,B   4)           64.97 -0.000817    0.00     64.97   
    38. A(B   5,B   0,B  10)           89.62  0.005588   -0.53     89.09   
    39. A(B   4,B   0,B  10)          107.84  0.000591   -0.08    107.76   
    40. A(B   3,B   0,B  10)           96.21  0.001582   -0.15     96.06   
    41. A(B   4,B   0,B   5)          142.29 -0.008978    0.82    143.11   
    42. A(B   3,B   0,B   7)           67.21 -0.005612    0.61     67.82   
    43. A(B   4,B   0,B   6)          163.37 -0.001928    0.14    163.51   
    44. A(B   9,B   0,B  10)          165.14  0.001236   -0.19    164.95   
    45. A(B   3,B   0,B   9)           69.36 -0.000234   -0.05     69.31   
    46. A(B   4,B   0,B   9)           63.51 -0.000486    0.04     63.55   
    47. A(B   4,B   0,B   7)           80.40 -0.006292    0.63     81.03   
    48. A(B   5,B   0,B   7)          100.35  0.003586   -0.36     99.99   
    49. A(B   3,B   0,B   6)          102.16 -0.000424    0.10    102.26   
    50. A(B   4,B   1,B   9)           73.39 -0.004495    0.55     73.94   
    51. A(B   3,B   1,B   4)           53.61 -0.001162    0.14     53.75   
    52. A(B   9,B   1,B  11)          117.79 -0.003779    0.46    118.25   
    53. A(B   3,B   1,B  11)           91.65  0.002561   -0.32     91.33   
    54. A(B   3,B   1,B   9)           80.92 -0.005618    0.68     81.60   
    55. A(B   2,B   1,B   3)           50.92  0.002818   -0.28     50.63   
    56. A(B   4,B   1,B  11)           54.41  0.001001   -0.13     54.28   
    57. A(B   2,B   1,B   4)          103.51  0.001680   -0.14    103.36   
    58. A(B   2,B   1,B  11)          117.34  0.004845   -0.56    116.77   
    59. A(B   2,B   1,B   9)          104.72 -0.001919    0.25    104.96   
    60. A(B   3,B   2,B   5)           68.18 -0.002923    0.37     68.56   
    61. A(B   1,B   2,B   5)          112.44 -0.005486    0.63    113.06   
    62. A(B   1,B   2,B   3)           55.23 -0.000948    0.10     55.33   
    63. A(B   1,B   3,B   5)          128.43 -0.005904    0.60    129.03   
    64. A(B   4,B   3,B  10)           95.29 -0.001488    0.10     95.39   
    65. A(B   0,B   3,B  10)           54.94 -0.002644    0.21     55.14   
    66. A(B   6,B   3,B   7)           78.26  0.004830   -0.60     77.66   
    67. A(B   9,B   3,B  10)          141.03 -0.005068    0.51    141.54   
    68. A(B   1,B   3,B   7)          118.07 -0.006212    0.70    118.77   
    69. A(B   1,B   3,B   2)           73.86 -0.001871    0.18     74.04   
    70. A(B   2,B   3,B   9)          103.99  0.000829   -0.13    103.86   
    71. A(B   2,B   3,B   4)          143.34 -0.001283    0.16    143.50   
    72. A(B   2,B   3,B   5)           71.57 -0.002211    0.25     71.82   
    73. A(B   0,B   3,B   1)          139.58 -0.000153    0.05    139.63   
    74. A(B   5,B   3,B   9)           93.49 -0.004447    0.42     93.91   
    75. A(B   0,B   3,B   5)           69.71  0.004690   -0.51     69.20   
    76. A(B   2,B   3,B  10)          108.55  0.003850   -0.35    108.20   
    77. A(B   0,B   3,B   7)           84.77  0.004074   -0.51     84.26   
    78. A(B   4,B   3,B   5)          142.66  0.001673   -0.22    142.44   
    79. A(B   2,B   3,B   7)           96.05  0.000599   -0.01     96.04   
    80. A(B   4,B   3,B   7)           88.56 -0.003427    0.33     88.89   
    81. A(B   0,B   3,B   4)           76.14 -0.000818    0.07     76.21   
    82. A(B   5,B   3,B   7)          102.66  0.010753   -1.13    101.53   
    83. A(B   0,B   3,B   2)          140.44  0.002035   -0.22    140.22   
    84. A(B   1,B   3,B  10)          150.97  0.001321   -0.12    150.86   
    85. A(B   5,B   3,B   6)           30.00  0.007962   -0.74     29.27   
    86. A(B   0,B   3,B   9)           86.25 -0.002420    0.30     86.55   
    87. A(B   6,B   3,B   9)          111.06 -0.000807    0.10    111.16   
    88. A(B   1,B   3,B   6)          158.42  0.002064   -0.13    158.28   
    89. A(B   5,B   3,B  10)           77.38  0.005469   -0.56     76.82   
    90. A(B   6,B   3,B  10)           48.46 -0.002564    0.18     48.64   
    91. A(B   7,B   3,B   9)          157.46 -0.003716    0.40    157.86   
    92. A(B   4,B   3,B   6)          125.20 -0.002063    0.10    125.29   
    93. A(B   2,B   3,B   6)           91.24  0.003339   -0.26     90.97   
    94. A(B   1,B   3,B   9)           59.64  0.002263   -0.24     59.40   
    95. A(B   7,B   3,B  10)           33.72  0.007828   -0.84     32.88   
    96. A(B   0,B   3,B   6)           50.04 -0.000998    0.01     50.06   
    97. A(B   1,B   3,B   4)           71.97  0.000343    0.01     71.98   
    98. A(B   4,B   3,B   9)           69.21 -0.000814    0.13     69.34   
    99. A(B   9,B   4,B  11)          124.56 -0.003219    0.40    124.96   
   100. A(B   1,B   4,B   9)           59.04  0.001208   -0.14     58.90   
   101. A(B   0,B   4,B   9)           77.78 -0.002170    0.28     78.06   
   102. A(B   3,B   4,B   9)           73.22 -0.001546    0.17     73.39   
   103. A(B   8,B   4,B   9)           78.57 -0.001598    0.20     78.76   
   104. A(B   0,B   4,B   3)           38.89  0.001635   -0.07     38.82   
   105. A(B   0,B   4,B   1)           90.52  0.002403   -0.21     90.31   
   106. A(B   8,B   4,B  11)           68.56 -0.002150    0.27     68.83   
   107. A(B   1,B   4,B  11)           77.41 -0.004047    0.50     77.91   
   108. A(B   0,B   4,B  11)          138.89  0.004842   -0.54    138.34   
   109. A(B   3,B   4,B  11)          109.08  0.001001   -0.15    108.93   
   110. A(B   1,B   4,B   8)           90.43 -0.003275    0.40     90.83   
   111. A(B   0,B   4,B   8)          151.73 -0.003485    0.39    152.12   
   112. A(B   3,B   4,B   8)          142.90 -0.003307    0.36    143.26   
   113. A(B   1,B   4,B   3)           54.42  0.000819   -0.15     54.27   
   114. A(B   0,B   5,B   2)           69.91  0.007349   -0.80     69.11   
   115. A(B   2,B   5,B   6)          106.21  0.002440   -0.34    105.86   
   116. A(B   0,B   5,B   3)           29.87  0.002336   -0.19     29.67   
   117. A(B   3,B   5,B   6)           81.08 -0.000779    0.02     81.10   
   118. A(B   0,B   5,B   6)           60.46 -0.002966    0.20     60.66   
   119. A(B   2,B   5,B   3)           40.25  0.005134   -0.62     39.63   
   120. A(B   3,B   6,B  10)           64.66  0.001777   -0.17     64.49   
   121. A(B   0,B   6,B  10)           60.80  0.000765   -0.06     60.75   
   122. A(B   5,B   6,B  10)          130.36 -0.004262    0.43    130.79   
   123. A(B   0,B   6,B   3)           27.79  0.001422   -0.11     27.68   
   124. A(B   3,B   6,B   5)           68.91 -0.007184    0.71     69.63   
   125. A(B   0,B   6,B   5)           85.38 -0.005964    0.61     85.98   
   126. A(B   3,B   7,B  10)           77.73  0.000120   -0.00     77.73   
   127. A(B   0,B   7,B   3)           28.02  0.001538   -0.10     27.92   
   128. A(B   0,B   7,B  10)           53.00 -0.001085    0.07     53.07   
   129. A(B   4,B   8,B   9)           59.88 -0.002498    0.34     60.22   
   130. A(B   4,B   8,B  11)           59.57 -0.001493    0.20     59.78   
   131. A(B   9,B   8,B  11)          105.60 -0.003863    0.52    106.11   
   132. A(B   0,B   9,B   8)           79.38  0.006575   -0.85     78.53   
   133. A(B   3,B   9,B   8)           77.01  0.005968   -0.78     76.23   
   134. A(B   4,B   9,B   8)           41.55  0.004097   -0.54     41.02   
   135. A(B   1,B   9,B   8)           63.83  0.002843   -0.37     63.46   
   136. A(B   0,B   9,B   3)           24.39  0.002654   -0.25     24.14   
   137. A(B   0,B   9,B   4)           38.71  0.002656   -0.32     38.39   
   138. A(B   0,B   9,B   1)           62.53  0.005874   -0.68     61.85   
   139. A(B   3,B   9,B   4)           37.57  0.002359   -0.30     37.27   
   140. A(B   1,B   9,B   3)           39.44  0.003355   -0.44     39.00   
   141. A(B   1,B   9,B   4)           47.58  0.003287   -0.41     47.17   
   142. A(B   3,B  10,B   7)           68.55 -0.007948    0.84     69.40   
   143. A(B   0,B  10,B   6)           57.78  0.001075   -0.09     57.69   
   144. A(B   6,B  10,B   7)          125.00 -0.005281    0.63    125.63   
   145. A(B   0,B  10,B   7)           93.56 -0.007216    0.82     94.38   
   146. A(B   3,B  10,B   6)           66.88  0.000787   -0.02     66.86   
   147. A(B   0,B  10,B   3)           28.85  0.001062   -0.05     28.80   
   148. A(B   1,B  11,B   8)           69.17  0.003022   -0.38     68.79   
   149. A(B   1,B  11,B   4)           48.18  0.003046   -0.36     47.81   
   150. A(B   4,B  11,B   8)           51.86  0.003643   -0.47     51.39   
   151. D(B   5,B   2,B   1,B   3)     39.09  0.001731   -0.13     38.96   
   152. D(B   3,B   2,B   1,B  11)     67.78  0.001246   -0.15     67.64   
   153. D(B   5,B   2,B   1,B   4)     50.21  0.001330   -0.09     50.12   
   154. D(B   5,B   2,B   1,B  11)    106.87  0.002977   -0.27    106.60   
   155. D(B   3,B   2,B   1,B   9)    -64.94  0.004313   -0.55    -65.49   
   156. D(B   3,B   2,B   1,B   4)     11.12 -0.000401    0.04     11.16   
   157. D(B   0,B   3,B   1,B   4)     39.59 -0.000959    0.09     39.68   
   158. D(B   5,B   3,B   2,B   1)    141.12 -0.004488    0.45    141.57   
   159. D(B   5,B   3,B   1,B   2)    -49.48 -0.000170    0.00    -49.48   
[...]
   206. D(B   1,B   4,B   0,B   3)     22.80  0.000178   -0.20     22.59   
   207. D(B   3,B   4,B   0,B   7)    109.36 -0.000187    0.17    109.53   
   208. D(B   3,B   4,B   0,B  10)    119.24 -0.000162    0.82    120.06   
   209. D(B   3,B   4,B   0,B   5)     23.15  0.000793   -1.11     22.04   
   210. D(B   3,B   4,B   0,B   6)    119.70 -0.000500    2.32    122.03   
   211. D(B   3,B   4,B   0,B   9)    -35.48 -0.000378    1.20    -34.28   
   212. D(B   1,B   4,B   0,B   6)    142.50 -0.000322    2.12    144.62   
   213. D(B   3,B   4,B   1,B   2)    -24.75 -0.000181    0.72    -24.03   
   214. D(B   1,B   4,B   3,B   6)   -167.75  0.000324   -0.20   -167.95   
   215. D(B   1,B   4,B   3,B   5)   -153.30 -0.000005    0.46   -152.84   
   216. D(B   0,B   4,B   3,B   7)    -70.01 -0.000149    0.93    -69.08   
   217. D(B   0,B   4,B   3,B   9)    132.80 -0.000456    2.01    134.81   
   218. D(B   0,B   4,B   3,B  10)    -44.06 -0.000076    0.62    -43.44   
   219. D(B   1,B   4,B   3,B   2)     24.88  0.000619   -2.24     22.64   
   220. D(B   0,B   4,B   3,B   6)    -24.18  0.000026    0.71    -23.46   
   221. D(B   0,B   4,B   3,B   5)     -9.72 -0.000303    1.38     -8.35   
   222. D(B   0,B   4,B   3,B   1)    143.57 -0.000298    0.92    144.49   
   223. D(B   1,B   4,B   3,B   7)    146.42  0.000149    0.01    146.44   
   224. D(B   1,B   4,B   3,B  10)    172.37  0.000222   -0.30    172.07   
   225. D(B   1,B   4,B   3,B   0)   -143.57  0.000298   -0.92   -144.49   
   226. D(B   0,B   5,B   3,B   6)     40.75  0.000284    0.05     40.80   
   227. D(B   0,B   5,B   3,B   1)   -122.99  0.000560    0.52   -122.47   
   228. D(B   0,B   5,B   3,B   4)      6.73  0.000264   -1.23      5.50   
   229. D(B   0,B   5,B   3,B   2)   -170.87 -0.000582    2.15   -168.71   
   230. D(B   6,B   5,B   3,B   9)   -146.12  0.000565   -1.18   -147.30   
   231. D(B   6,B   5,B   3,B   4)    -34.02 -0.000021   -1.28    -35.30   
   232. D(B   0,B   5,B   2,B   1)    -66.12  0.000959   -3.05    -69.17   
   233. D(B   6,B   5,B   3,B   1)   -163.74  0.000275    0.47   -163.27   
   234. D(B   0,B   5,B   2,B   3)      8.17 -0.000515    1.98     10.16   
   235. D(B   6,B   5,B   2,B   1)   -117.97 -0.000091   -1.04   -119.01   
   236. D(B   3,B   5,B   2,B   1)    -74.29  0.001474   -5.04    -79.33   
   237. D(B   6,B   5,B   2,B   3)    -43.68 -0.001565    4.00    -39.68   
   238. D(B   6,B   5,B   3,B   0)    -40.75 -0.000284   -0.05    -40.80   
   239. D(B   3,B   5,B   0,B   7)   -103.24  0.000045   -1.27   -104.50   
   240. D(B   3,B   5,B   0,B  10)   -125.91 -0.000055   -0.67   -126.58   
   241. D(B   3,B   5,B   0,B   6)   -147.42 -0.000263   -0.06   -147.48   
   242. D(B   6,B   5,B   3,B   7)      2.90  0.000026   -0.40      2.50   
   243. D(B   3,B   5,B   0,B   4)    -27.44 -0.000908    1.37    -26.07   
   244. D(B   6,B   5,B   0,B   9)    176.83  0.000425   -0.64    176.19   
   245. D(B   6,B   5,B   3,B   2)    148.39 -0.000867    2.10    150.49   
   246. D(B   6,B   5,B   0,B   7)     44.18  0.000307   -1.21     42.97   
   247. D(B   6,B   5,B   0,B  10)     21.51  0.000208   -0.61     20.90   
   248. D(B   6,B   5,B   0,B   4)    119.97 -0.000645    1.43    121.40   
   249. D(B   6,B   5,B   0,B   3)    147.42  0.000263    0.06    147.48   
   250. D(B   6,B   5,B   3,B  10)      2.66  0.000060   -0.20      2.46   
   251. D(B  10,B   6,B   5,B   3)     -5.80 -0.000064    0.34     -5.46   
   252. D(B  10,B   6,B   5,B   0)    -42.56 -0.000245    0.30    -42.26   
   253. D(B   3,B   6,B   5,B   2)     16.87  0.000772   -2.55     14.32   
   254. D(B   0,B   6,B   5,B   2)     53.63  0.000953   -2.51     51.12   
   255. D(B   0,B   6,B   5,B   3)     36.76  0.000181    0.04     36.80   
   256. D(B   0,B   6,B   3,B   5)   -124.04  0.000031   -0.05   -124.09   
   257. D(B   0,B   6,B   3,B   4)     21.15  0.000038   -1.32     19.83   
   258. D(B   5,B   6,B   3,B   9)     66.58 -0.000519   -0.11     66.47   
   259. D(B   0,B   6,B   3,B   1)    -73.85 -0.001047    2.01    -71.84   
   260. D(B   5,B   6,B   3,B  10)   -175.29  0.000051   -0.28   -175.57   
   261. D(B   5,B   6,B   3,B   7)   -176.37  0.000012   -0.47   -176.84   
   262. D(B   5,B   6,B   3,B   1)     50.19 -0.001078    2.06     52.25   
   263. D(B   5,B   6,B   3,B   4)    145.19  0.000007   -1.27    143.92   
   264. D(B   5,B   6,B   3,B   2)    -64.68  0.000497   -1.39    -66.07   
   265. D(B   3,B   6,B   0,B  10)   -119.56 -0.000029   -0.88   -120.43   
   266. D(B   0,B   6,B   3,B   2)    171.28  0.000527   -1.44    169.84   
   267. D(B   3,B   6,B   0,B   4)   -120.25  0.000478   -3.17   -123.41   
   268. D(B   5,B   6,B   0,B   9)     -4.65  0.000646   -0.93     -5.59   
   269. D(B   5,B   6,B   0,B   7)   -137.75  0.000321   -0.95   -138.70   
   270. D(B   3,B   6,B   0,B   5)     27.19 -0.000160   -0.17     27.02   
   271. D(B   5,B   6,B   0,B  10)   -146.75  0.000131   -0.71   -147.46   
   272. D(B   3,B   6,B   5,B   0)    -36.76 -0.000181   -0.04    -36.80   
   273. D(B   5,B   6,B   0,B   4)   -147.44  0.000637   -3.00   -150.44   
   274. D(B   5,B   6,B   3,B   0)    124.04 -0.000031    0.05    124.09   
   275. D(B   5,B   6,B   0,B   3)    -27.19  0.000160    0.17    -27.02   
   276. D(B   3,B   6,B   0,B   7)   -110.56  0.000161   -1.11   -111.67   
   277. D(B  10,B   7,B   0,B   3)   -105.31 -0.000148    1.40   -103.90   
   278. D(B   0,B   7,B   3,B   1)    107.47 -0.000003   -1.85    105.62   
   279. D(B   0,B   7,B   3,B   2)    148.65  0.001042   -5.44    143.21   
   280. D(B  10,B   7,B   3,B   9)    150.78 -0.000417    1.71    152.49   
   281. D(B  10,B   7,B   3,B   6)      1.17  0.000043    0.27      1.44   
   282. D(B  10,B   7,B   3,B   1)    168.57 -0.000104   -0.31    168.26   
   283. D(B  10,B   7,B   3,B   4)    117.27  0.000048   -0.19    117.08   
   284. D(B  10,B   7,B   3,B   2)   -150.25  0.000941   -3.90   -154.15   
   285. D(B  10,B   7,B   3,B   0)     61.10 -0.000101    1.55     62.64   
   286. D(B   3,B   7,B   0,B   5)     61.57  0.000108   -0.37     61.21   
   287. D(B   3,B   7,B   0,B   6)     94.50 -0.000105   -1.06     93.44   
   288. D(B  10,B   7,B   3,B   5)     -0.45  0.000071    0.40     -0.05   
   289. D(B   3,B   7,B   0,B   4)    -92.51  0.000157   -2.62    -95.13   
   290. D(B  10,B   7,B   0,B   9)   -150.49 -0.000255    0.77   -149.72   
   291. D(B  10,B   7,B   0,B   5)    -43.73 -0.000040    1.03    -42.70   
   292. D(B   0,B   7,B   3,B   4)     56.18  0.000149   -1.74     54.44   
   293. D(B  10,B   7,B   0,B   6)    -10.81 -0.000254    0.35    -10.46   
   294. D(B  10,B   7,B   0,B   4)    162.18  0.000009   -1.22    160.96   
   295. D(B   9,B   8,B   4,B   1)     15.51  0.000146   -0.43     15.08   
   296. D(B   9,B   8,B   4,B   0)    112.02 -0.000426    0.51    112.53   
   297. D(B   9,B   8,B   4,B   3)     55.36 -0.000091    1.29     56.64   
   298. D(B  11,B   8,B   4,B   9)   -134.93  0.000008    0.92   -134.01   
   299. D(B  11,B   8,B   4,B   1)   -119.42  0.000154    0.49   -118.93   
   300. D(B  11,B   8,B   4,B   0)    -22.91 -0.000418    1.43    -21.48   
   301. D(B  11,B   8,B   4,B   3)    -79.58 -0.000083    2.20    -77.37   
   302. D(B   0,B   9,B   8,B   4)    -14.59  0.000194   -0.91    -15.50   
   303. D(B   3,B   9,B   8,B  11)     36.40  0.000075    1.26     37.66   
   304. D(B   3,B   9,B   8,B   4)    -39.26  0.000114   -0.16    -39.42   
   305. D(B   4,B   9,B   8,B  11)     75.66 -0.000039    1.42     77.08   
   306. D(B   1,B   9,B   8,B  11)      6.15 -0.000091    3.30      9.45   
   307. D(B   0,B   9,B   4,B   3)     29.15  0.000240   -1.73     27.42   
   308. D(B   3,B   9,B   4,B  11)     89.77 -0.000108   -0.18     89.59   
   309. D(B   3,B   9,B   4,B   8)    125.05  0.000106    0.11    125.16   
   310. D(B   3,B   9,B   4,B   0)    -29.15 -0.000240    1.73    -27.42   
   311. D(B   1,B   9,B   4,B  11)     62.05 -0.000203    1.34     63.39   
   312. D(B   1,B   9,B   4,B   8)     97.33  0.000011    1.63     98.97   
   313. D(B   1,B   9,B   4,B   3)    -27.71 -0.000095    1.52    -26.20   
   314. D(B   4,B   9,B   3,B   6)     74.17  0.000525   -0.99     73.18   
   315. D(B   4,B   9,B   3,B   5)    111.90 -0.000597   -0.11    111.79   
   316. D(B   4,B   9,B   3,B   1)   -121.72 -0.000196   -0.30   -122.02   
   317. D(B   4,B   9,B   3,B   2)   -131.09 -0.000289    1.32   -129.77   
   318. D(B   4,B   9,B   3,B   0)     31.39  0.000306   -1.69     29.70   
   319. D(B   1,B   9,B   3,B  10)    127.89  0.000946   -2.15    125.74   
   320. D(B   1,B   9,B   3,B   7)     99.68  0.000459   -1.24     98.44   
   321. D(B   1,B   9,B   3,B   6)   -164.11  0.000721   -0.69   -164.80   
   322. D(B   1,B   9,B   3,B   5)   -126.38 -0.000401    0.20   -126.19   
   323. D(B   1,B   9,B   3,B   4)    121.72  0.000196    0.30    122.02   
   324. D(B   1,B   9,B   3,B   2)     -9.38 -0.000093    1.62     -7.75   
   325. D(B   1,B   9,B   3,B   0)    153.11  0.000502   -1.39    151.72   
   326. D(B   0,B   9,B   1,B   4)    -24.17 -0.000030    0.17    -23.99   
   327. D(B   0,B   9,B   1,B   3)     11.94 -0.000256    0.88     12.82   
   328. D(B   3,B   9,B   1,B  11)    -57.15  0.000215   -1.03    -58.17   
   329. D(B   3,B   9,B   1,B   2)     42.01  0.000902   -2.40     39.60   
   330. D(B   3,B   9,B   1,B   4)    -36.10  0.000226   -0.71    -36.81   
   331. D(B   4,B   9,B   1,B  11)    -21.05 -0.000012   -0.32    -21.36   
   332. D(B   1,B   9,B   4,B   0)    -56.86 -0.000334    3.24    -53.62   
   333. D(B   4,B   9,B   1,B   2)     78.11  0.000676   -1.69     76.42   
   334. D(B   4,B   9,B   1,B   3)     36.10 -0.000226    0.71     36.81   
   335. D(B   4,B   9,B   0,B  10)    -82.61  0.000125   -3.12    -85.74   
   336. D(B   3,B   9,B   4,B   1)     27.71  0.000095   -1.52     26.20   
   337. D(B   4,B   9,B   0,B   5)   -159.62  0.000372   -2.41   -162.02   
   338. D(B   4,B   9,B   0,B   6)   -156.11 -0.000148   -1.74   -157.85   
   339. D(B   4,B   9,B   0,B   3)   -121.73  0.000513   -3.26   -124.99   
   340. D(B   1,B   9,B   8,B   4)    -69.51 -0.000052    1.88    -67.62   
   341. D(B   1,B   9,B   0,B   7)     62.44 -0.000003    0.49     62.93   
   342. D(B   1,B   9,B   0,B  10)     22.55 -0.000139   -0.29     22.26   
   343. D(B   1,B   9,B   0,B   5)    -54.45  0.000107    0.42    -54.03   
   344. D(B   1,B   9,B   0,B   6)    -50.95 -0.000413    1.09    -49.86   
   345. D(B   1,B   9,B   0,B   4)    105.17 -0.000265    2.83    108.00   
   346. D(B   1,B   9,B   0,B   3)    -16.56  0.000248   -0.43    -16.99   
   347. D(B   3,B  10,B   7,B   0)     26.36 -0.000008   -0.27     26.09   
   348. D(B   6,B  10,B   7,B   0)     23.49 -0.000047   -0.52     22.97   
   349. D(B   6,B  10,B   7,B   3)     -2.87 -0.000039   -0.25     -3.12   
   350. D(B   3,B  10,B   6,B   5)      2.69  0.000016   -0.17      2.52   
   351. D(B   0,B  10,B   6,B   3)     31.90  0.000157   -0.15     31.75   
   352. D(B   0,B  10,B   6,B   5)     34.59  0.000173   -0.32     34.27   
   353. D(B   7,B  10,B   6,B   0)    -28.35 -0.000090    0.60    -27.74   
   354. D(B   7,B  10,B   6,B   5)      6.24  0.000083    0.28      6.52   
   355. D(B   0,B  10,B   3,B   5)    -90.36  0.000204   -1.00    -91.35   
   356. D(B   0,B  10,B   3,B   4)     44.61  0.000177   -2.14     42.47   
   357. D(B   0,B  10,B   3,B   2)    141.60  0.001595   -7.07    134.53   
   358. D(B   7,B  10,B   3,B   9)    -52.90 -0.000821    2.33    -50.57   
   359. D(B   7,B  10,B   3,B   6)   -177.97  0.000072    0.42   -177.55   
   360. D(B   7,B  10,B   3,B   5)    179.45  0.000084    0.52    179.97   
   361. D(B   7,B  10,B   3,B   1)    -23.47 -0.000405   -0.40    -23.87   
   362. D(B   7,B  10,B   3,B   4)    -45.59  0.000058   -0.63    -46.22   
   363. D(B   7,B  10,B   3,B   2)     51.40  0.001476   -5.55     45.85   
   364. D(B   0,B  10,B   3,B   1)     66.72 -0.000285   -1.91     64.81   
   365. D(B   7,B  10,B   3,B   0)    -90.19 -0.000120    1.51    -88.68   
   366. D(B   6,B  10,B   0,B   7)   -164.26  0.000317   -0.40   -164.65   
   367. D(B   6,B  10,B   0,B   5)    -24.44  0.000148    0.50    -23.94   
   368. D(B   7,B  10,B   6,B   3)      3.55  0.000066    0.45      4.01   
   369. D(B   6,B  10,B   0,B   4)    179.54  0.000338   -1.69    177.85   
   370. D(B   6,B  10,B   0,B   3)    -73.78  0.000089    1.23    -72.55   
   371. D(B   7,B  10,B   0,B   9)     62.27 -0.000078    1.53     63.80   
   372. D(B   0,B  10,B   7,B   3)    -26.36  0.000008    0.27    -26.09   
   373. D(B   7,B  10,B   0,B   5)    139.82 -0.000169    0.90    140.72   
   374. D(B   7,B  10,B   0,B   6)    164.26 -0.000317    0.40    164.65   
   375. D(B   7,B  10,B   0,B   4)    -16.20  0.000021   -1.30    -17.49   
   376. D(B   7,B  10,B   0,B   3)     90.47 -0.000227    1.63     92.10   
   377. D(B   1,B  11,B   8,B   9)     -1.65  0.000009   -0.71     -2.35   
   378. D(B   1,B  11,B   8,B   4)     54.89  0.000172   -0.56     54.33   
   379. D(B   4,B  11,B   8,B   9)    -56.53 -0.000163   -0.15    -56.68   
   380. D(B   1,B  11,B   4,B   0)     89.40 -0.000122   -0.75     88.65   
   381. D(B   1,B  11,B   4,B   3)     43.73 -0.000094    0.56     44.29   
   382. D(B   8,B  11,B   4,B   9)     63.40 -0.000013    1.63     65.03   
   383. D(B   8,B  11,B   4,B   1)     78.96  0.000085    1.29     80.25   
   384. D(B   8,B  11,B   4,B   0)    168.36 -0.000037    0.54    168.90   
   385. D(B   8,B  11,B   4,B   3)    122.70 -0.000010    1.85    124.55   
   386. D(B   8,B  11,B   1,B   2)   -162.44 -0.000126    1.53   -160.91   
   387. D(B   8,B  11,B   1,B   4)    -58.66  0.000228    0.98    -57.68   
   388. D(B   1,B  11,B   4,B   8)    -78.96 -0.000085   -1.29    -80.25   
   389. D(B   8,B  11,B   1,B   3)   -125.00  0.000359   -0.27   -125.27   
   390. D(B   4,B  11,B   1,B   9)     64.61 -0.000324    2.07     66.68   
   391. D(B   4,B  11,B   1,B   2)   -103.77 -0.000354    0.55   -103.23   
   392. D(B   4,B  11,B   1,B   3)    -66.33  0.000131   -1.25    -67.59   
    ----------------------------------------------------------------------------

Geometry step timings:
Preparation and reading OPT file:      0.000 s ( 0.066 %)
Internal coordinates            :      0.000 s ( 0.133 %)
B/P matrices and projection     :      0.013 s (21.774 %)
Hessian update/contruction      :      0.008 s (13.179 %)
Making the step                 :      0.035 s (58.616 %)
Converting the step to Cartesian:      0.001 s ( 1.451 %)
Storing new data                :      0.000 s ( 0.159 %)
Checking convergence            :      0.000 s ( 0.462 %)
Final printing                  :      0.002 s ( 4.152 %)
Total time                      :      0.059 s

Time for energy+gradient        :      0.060 s
Time for complete geometry iter :      0.121 s




    ----------------------------------------------------------------------------
                                  WARNING !!!
       The optimization did not converge but reached the maximum number of
       optimization cycles.
       Please check your results very carefully.
    ----------------------------------------------------------------------------



--------------------------------
SUGGESTED CITATIONS FOR THIS RUN
--------------------------------

Below you find a list of papers that are relevant to this ORCA run
We neither can nor want to force you to cite these papers, but we appreciate if you do
You receive ORCA, which is the product of decades of hard work by many enthusiastic individuals, for free
The only thing we kindly ask in return is that you cite our papers,
We deeply appreciate it, if you show your appreciation for ORCA by not just citing the generic ORCA reference.

Please note that relegating all ORCA citations to the supporting information does *not* help us.
SI sections are not indexed - citations you put there will not count into any citation statistics
But we need these citations in order to attract the funding resources that allow us to do what we are doing

Therefore, if you are a happy ORCA user, please consider citing a few of the papers listed below in the main body of your paper

In addition to the list printed below, the program has created the file random_d2.10_007_m1.bibtex that contains the list in bibtex format
You can import this file easily into all common literature databanks and citation aid programs

It goes without saying that in many instances, there are alternative algorithms to achieve similar
results as the ones you have gotten from ORCA. It is, of course, also the case that in some instances
ORCA just re-implements algorithms worked out by others. We are fully aware of that and we are also
fully appreciative of our colleagues work. Hence this citation list should not be read as indicating
that the listed papers, which are focused on our own work, are the only ones worth citing. It simply
meant to make it easier for users to cite ORCA specific papers. It is not a substitute for doing your
own literature research and citing the relevant literature in a scientifically appropriate manner.

List of essential papers. We consider these as the minimum necessary citations

  1. Bannwarth, C.; Ehlert, S.; Grimme, S.
     GFN2-xTB—An Accurate and Broadly Parametrized Self-Consistent Tight-Binding Quantum Chemical Method with Multipole Electrostatics and Density-Dependent Dispersion Contributions
     J. Chem. Theory Comput. 2019 15(3), 1652-1671
     doi.org/10.1021/acs.jctc.8b01176
  2. Neese, F.
     Software update: the ORCA program system, version 6.0
     WIRES Comput. Molec. Sci. 2025 15(1), e70019
     doi.org/10.1002/wcms.70019

List of papers to cite with high priority. The work reported in these papers was absolutely
necessary for this run to complete.
Our perspective: the developers of density functionals and basis sets usually get cited in chemistry papers
Good! But without the algorithms to do something with them, the functionals or basis sets would not do anything.
Hence, in our opinion, the algorithm design and method developments papers are equally worthy of getting cited

  1. Bannwarth, C.; Caldeweyher, E.; Ehlert, S.; Hansen, A.; Pracht, P.; Seibert, J.; Spicher, S.; Grimme, S.
     Extended tight-binding quantum chemistry methods
     WIRES Comput. Molec. Sci. 2020 11(2), e1493
     doi.org/10.1002/wcms.1493

List of suggested additional citations. These are papers that are important in the 'surrounding' of 
of this run, or papers that preceded the highly important papers. If you like your results we are grateful for a citation.

  1. Neese, F.
     The ORCA program system
     WIRES Comput. Molec. Sci. 2012 2(1), 73-78
     doi.org/10.1002/wcms.81
  2. Neese, F.
     Software update: the ORCA program system, version 4.0
     WIRES Comput. Molec. Sci. 2018 8(1), 1-6
     doi.org/10.1002/wcms.1327
  3. Neese, F.; Wennmohs, F.; Becker, U.; Riplinger, C.
     The ORCA quantum chemistry program package
     J. Chem. Phys. 2020 152(22), 224108
     doi.org/10.1063/5.0004608
  4. Neese, F.
     Software update: The ORCA program system—Version 5.0
     WIRES Comput. Molec. Sci. 2022 12(1), e1606
     doi.org/10.1002/wcms.1606

List of optional additional citations

  1. Neese, F.
     Approximate second-order SCF convergence for spin unrestricted wavefunctions
     Chem. Phys. Lett. 2000 325(1-3), 93-98
     doi.org/10.1016/s0009-2614(00)00662-x

Timings for individual modules:

Sum of individual times          ...        6.553 sec (=   0.109 min)
Geometry relaxation              ...        3.211 sec (=   0.054 min)  49.0 %
XTB module                       ...        3.343 sec (=   0.056 min)  51.0 %
                             ****ORCA TERMINATED NORMALLY****
TOTAL RUN TIME: 0 days 0 hours 0 minutes 7 seconds 47 msec
