
                                 *****************
                                 * O   R   C   A *
                                 *****************

                                            #,                                       
                                            ###                                      
                                            ####                                     
                                            #####                                    
                                            ######                                   
                                           ########,                                 
                                     ,,################,,,,,                         
                               ,,#################################,,                 
                          ,,##########################################,,             
                       ,#########################################, ''#####,          
                    ,#############################################,,   '####,        
                  ,##################################################,,,,####,       
                ,###########''''           ''''###############################       
              ,#####''   ,,,,##########,,,,          '''####'''          '####       
            ,##' ,,,,###########################,,,                        '##       
           ' ,,###''''                  '''############,,,                           
         ,,##''                                '''############,,,,        ,,,,,,###''
      ,#''                                            '''#######################'''  
     '                                                          ''''####''''         
             ,#######,   #######,   ,#######,      ##                                
            ,#'     '#,  ##    ##  ,#'     '#,    #''#        ,####,    ,#,          
            ##       ##  ##   ,#'  ##            #'  '#       #'       ,# #          
            ##       ##  #######   ##           ,######,      #####,      #          
            '#,     ,#'  ##    ##  '#,     ,#' ,#      #,     #,   #      #          
             '#######'   ##     ##  '#######'  #'      '#     '####' #    #          



                #########################################################
                #                        -***-                          #
                #          Department of theory and spectroscopy        #
                #                                                       #
                #                      Frank Neese                      #
                #                                                       #
                #     Directorship, Architecture, Infrastructure        #
                #                    SHARK, DRIVERS                     #
                #        Core code/Algorithms in most modules           #
                #                                                       #
                #        Max Planck Institute fuer Kohlenforschung      #
                #                Kaiser Wilhelm Platz 1                 #
                #                 D-45470 Muelheim/Ruhr                 #
                #                      Germany                          #
                #                                                       #
                #                  All rights reserved                  #
                #                        -***-                          #
                #########################################################


                         Program Version 6.1.1  -  RELEASE   -
                                (GIT: $487d211c$)
                          ($2025-11-21 10:33:24 +0100$)
                                                                         
                                  - NO-DMRG VERSION -                    
                                                                         


 With contributions from (in alphabetic order):
[Max-Planck-Institut fuer Kohlenforschung]                               
  Daniel Aravena         : Magnetic Suceptibility                        
  Michael Atanasov       : Ab Initio Ligand Field Theory (pilot matlab implementation)
  Alexander A. Auer      : GIAO ZORA, VPT2 properties, NMR spectrum      
  Ute Becker             : All parallelization in ORCA, NUMFREQ, NUMCALC 
  Giovanni Bistoni       : ED, misc. LED, open-shell LED, HFLD           
  Dmytro Bykov           : pre 5.0 version of the SCF Hessian            
  Marcos Casanova-Páez   : Triplet and SCS-CIS(D). UHF-(DLPNO)-IP/EA/STEOM-CCSD. UHF-CVS-IP/STEOM-CCSD   
  Vijay G. Chilkuri      : MRCI spin determinant printing, contributions to CSF-ICE 
  Pauline Colinet        : FMM embedding                                 
  Dipayan Datta          : RHF DLPNO-CCSD density                        
  Achintya Kumar Dutta   : EOM-CC, STEOM-CC                              
  Nicolas Foglia         : Exact transition moments, OPA infrastructure, MCD improvements    
  Dmitry Ganyushin       : Spin-Orbit,Spin-Spin,Magnetic field MRCI      
  Miquel Garcia-Rates    : C-PCM and meta-GGA Hessian, CCSD/C-PCM, Gaussian charge scheme 
  Tiago L. C. Gouveia    : GS-ROHF, GS-ROCIS                             
  Yang Guo               : DLPNO-NEVPT2, F12-NEVPT2, CIM, IAO-localization        
  Andreas Hansen         : Spin unrestricted coupled pair/coupled cluster methods 
  Ingolf Harden          : AUTO-CI MPn and infrastructure                
  Benjamin Helmich-Paris : MC-RPA, TRAH-(SCF,CASSCF), AVAS, COSX integrals, SCF dyn. polar., MC-PDFT, srDFT 
  Lee Huntington         : MR-EOM, pCC                                   
  Robert Izsak           : Overlap fitted RIJCOSX, COSX-SCS-MP3, EOM     
  Riya Kayal             : Wick's Theorem for AUTO-CI, AUTO-CI UHF-CCSDT 
  Emily Kempfer          : AUTO-CI RHF CISDT and CCSDT, approximate NEVPT4
  Christian Kollmar      : KDIIS, OOCD, Brueckner-CCSD(T), CCSD density, CASPT2, CASPT2-K, improved NEVPT2 
  Axel Koslowski         : Symmetry handling                             
  Simone Kossmann        : meta-GGA functionals, TD-DFT gradient, OOMP2, (MP2 Hessian; deprecated post 5.0) 
  Lucas Lang             : DCDCAS, Hyperfine gauge corrections, ICE-SOC+SSC
  Marvin Lechner         : AUTO-CI (C++ implementation), FIC-MRCC        
  Spencer Leger          : CASSCF response                               
  Dagmar Lenk            : GEPOL surface, SMD, ORCA-2-JSON               
  Dimitrios Liakos       : Extrapolation schemes; Compound Job, Property file
  Dimitrios Manganas     : Further ROCIS development; embedding schemes. LFT, Crystal Embedding 
  Dimitrios Pantazis     : SARC Basis sets                               
  Anastasios Papadopoulos: AUTO-CI, single reference methods and gradients 
  Taras Petrenko         : pre 6.0 DFT Hessian and TD-DFT gradient,  ECA, NRVS 
  Petra Pikulova         : Analytic Raman intensities                    
  Peter Pinski           : DLPNO-MP2, DLPNO-MP2 Gradient                 
  Shashank Vittal Rao    : ES-AILFT, MagRelax                            
  Christoph Reimann      : Effective Core Potentials                     
  Marius Retegan         : Local ZFS, SOC                                
  Christoph Riplinger    : Optimizer, TS searches, QM/MM, DLPNO-CCSD(T), (RO)-DLPNO pert. Triples 
  Michael Roemelt        : Original ROCIS implementation, recursive CI coupling coefficients
  Masaaki Saitow         : Open-shell DLPNO-CCSD energy and density      
  Barbara Sandhoefer     : DKH picture change effects                    
  Yorick L. A. Schmerwitz: GMF and freeze-and-release deltaSCF, NEB S-IDPP initial path                    
  Kantharuban Sivalingam : CASSCF convergence/infrastructure, NEVPT2, NEVPT3, NEVPT4(SD), FIC-MRCI and CEPA variants
  Bernardo de Souza      : ESD, SOC TD-DFT                               
  Georgi L. Stoychev     : AutoAux, RI-MP2 NMR, DLPNO-MP2 response, X2C  
  Van Anh Tran           : RI-MP2 g-tensors                              
  Willem Van den Heuvel  : Paramagnetic NMR                              
  Zikuan Wang            : NOTCH, Electric field optimization            
  Frank Wennmohs         : Technical directorship and infrastructure     
  Hang Xu                : AUTO-CI-Response properties                   
                                                                         
[FACCTs GmbH]                                                            
  Markus Bursch, Nicolas Foglia, Miquel Garcia-Rates, Ingolf Harden, Hagen Neugebauer, Anastasios Papadopoulos, 
  Christoph Riplinger, Bernardo de Souza, Georgi L. Stoychev                                                    
                                                                 
  APM, various basis sets, CI-OPT, improved COSX, DLPNO-Multilevel,           
  DOCKER, DRACO, updates on ESD, Fragmentator, GOAT, IRC, LR-CPCM, L-BFGS, MBIS, meta-GGA TD-DFT gradient, ML-optimized integration grids, 
  MM, NACMEs, nearIR, NEB, NEB-TS, NL-DFT gradient (VV10), 2- and 3-layer-ONIOM, interface openCOSMO-RS, QMMM,   
  Crystal-QMMM, RESP, rigid body optimization, SF, symmetry and pop. for TD-DFT, various functionals, SOLVATOR                                   
                                                                         
[Other institutions]                                                     
  V. Asgeirsson          : NEB                                           
  Christoph Bannwarth    : sTDA-DFT, sTD-DFT, PBEh-3c, B97-3c, D3        
  Giovanni Bistoni       : ETS/NOCV, ADLD/ADEX, COVALED                  
  Martin Brehm           : Molecular dynamics                            
  Ronald Cardenas        : ETS/NOCV                                      
  Martina Colucci        : COVALED                                       
  Sebastian Ehlert       : rSCAN, r2SCAN, r2SCAN-3c, D4, dhf basis sets  
  Marvin Friede          : D4 for Fr, Ra, Ac-Lr                          
  Lars Goerigk           : TD-DFT with DH, B97 family of functionals     
  Stefan Grimme          : VdW corrections, initial TS optimization, DFT functionals, gCP, sTDA/sTD-DF 
  Waldemar Hujo          : DFT-NL                                        
  H. Jonsson             : NEB                                           
  Holger Kruse           : gCP                                           
  Marcel Mueller         : wB97X-3c, vDZP basis set                      
  Hagen Neugebauer       : wr2SCAN, Native XTB                           
  Gianluca Regni         : ADLD/ADEX                                     
  Tobias Risthaus        : pre 6.0 range-separated hybrid DFT and stability analysis
  Lukas Wittmann         : regularized MP2, r2SCAN double-hybrids, wr2SCAN        
                                                                         
We gratefully acknowledge several colleagues who have allowed us to      
interface, adapt or use parts of their codes:                            
  Ed Valeev, F. Pavosevic, A. Kumar             : LibInt (2-el integral package), F12 methods 
  Garnet Chan, S. Sharma, J. Yang, R. Olivares  : DMRG                   
  Ulf Ekstrom                                   : XCFun DFT Library      
  Mihaly Kallay                                 : mrcc  (arbitrary order and MRCC methods)
  Frank Weinhold                                : gennbo (NPA and NBO analysis)           
  Simon Mueller                                 : openCOSMO-RS                            
  Christopher J. Cramer and Donald G. Truhlar   : smd solvation model                     
  S Lehtola, MJT Oliveira, MAL Marques          : LibXC Library                           
  Liviu Ungur et al                             : ANISO software                          


 Your calculation uses the libint2 library for the computation of 2-el integrals
 For citations please refer to: http://libint.valeyev.net

 Your ORCA version has been built with support for libXC version: 7.0.0
 For citations please refer to: https://libxc.gitlab.io

 This ORCA versions uses:
   CBLAS   interface :  Fast vector & matrix operations
   LAPACKE interface :  Fast linear algebra routines
   SCALAPACK package :  Parallel linear algebra routines
   Shared memory     :  Shared parallel matrices
   BLAS/LAPACK       :  OpenBLAS 0.3.29  USE64BITINT DYNAMIC_ARCH NO_AFFINITY Zen SINGLE_THREADED
        Core in use  :  Zen
   Copyright (c) 2011-2014, The OpenBLAS Project


  ***********************************
  * Starting time: Fri Apr 17 12:14:10 2026
  * Host name:     vmi3233575
  * Process ID:    332457
  * Working dir.:  /root/orca_b12_vps_pack/jobs/01_xtb/mult_1
  ***********************************

NOTE: MaxCore=500 MB was set to SCF,MP2,MDCI,CIPSI,MRCI,RASCI and CIS
      => If you want to overwrite this, your respective input block should be placed after the MaxCore statement


***************************************
The coordinates will be read from file: ../../../starts/random_d1.90_002.xyz
***************************************


Your calculation utilizes the semiempirical GFN2-xTB method
Please cite in your paper:
Bannwarth, C.; Ehlert S.; Grimme, S. J. Chem. Theory Comput. 2019, 15, 1652.
   

================================================================================

================================================================================
                                        WARNINGS
                       Please study these warnings very carefully!
================================================================================


WARNING: Geometry Optimization
  ===> : Switching off AutoStart
         For restart on a previous wavefunction, please use MOREAD

WARNING: Found dipole moment calculation with XTB calculation
  ===> : Switching off dipole moment calculation

Environment variable XTBEXE for xtb has been set!

================================================================================
                                       INPUT FILE
================================================================================
NAME = random_d1.90_002_m1.inp
|  1> ! GFN2-xTB TightSCF TightOpt
|  2> 
|  3> %pal
|  4>   nprocs 1
|  5> end
|  6> 
|  7> %maxcore 500
|  8> 
|  9> * xyzfile 0 1 ../../../starts/random_d1.90_002.xyz
| 10> 
| 11>                          ****END OF INPUT****
================================================================================

                       *****************************
                       * Geometry Optimization Run *
                       *****************************

Geometry optimization settings:
Update method            Update   .... BFGS
Choice of coordinates    CoordSys .... (2022) Redundant Internals
Initial Hessian          InHess   .... Almloef's Model
Max. no of cycles        MaxIter  .... 50

Convergence Tolerances:
Energy Change            TolE     ....  1.0000e-06 Eh
Max. Gradient            TolMAXG  ....  1.0000e-04 Eh/bohr
RMS Gradient             TolRMSG  ....  3.0000e-05 Eh/bohr
Max. Displacement        TolMAXD  ....  1.0000e-03 bohr
RMS Displacement         TolRMSD  ....  6.0000e-04 bohr
Strict Convergence                .... False

------------------------------------------------------------------------------
                        ORCA OPTIMIZATION COORDINATE SETUP
------------------------------------------------------------------------------

The optimization will be done in redundant internal coordinates (2022)
Making redundant internal coordinates   ...  (2022 redundants) done
Evaluating the initial hessian          ...  (Almloef) done
Evaluating the coordinates              ...  done
Calculating the B-matrix                .... done
Calculating the G-matrix                .... done
The number of degrees of freedom        ....  226

    -----------------------------------------------------------------
                    Redundant Internal Coordinates


    -----------------------------------------------------------------
         Definition                    Initial Value    Approx d2E/dq
    -----------------------------------------------------------------
      1. B(B   2,B   0)                  3.0356         0.010000   
      2. B(B   3,B   1)                  2.0170         0.083750   
      3. B(B   4,B   1)                  2.8377         0.010000   
      4. B(B   4,B   3)                  3.0812         0.010000   
      5. B(B   5,B   3)                  1.4430         0.689940   
      6. B(B   5,B   0)                  3.0487         0.010000   
      7. B(B   5,B   1)                  1.9342         0.113529   
      8. B(B   6,B   4)                  2.1244         0.056443   
      9. B(B   7,B   4)                  2.1633         0.048937   
     10. B(B   7,B   6)                  1.3284         1.050931   
     11. B(B   8,B   7)                  3.2711         0.010000   
     12. B(B   8,B   0)                  3.4081         0.010000   
     13. B(B   8,B   2)                  2.7131         0.010000   
     14. B(B   9,B   8)                  2.5653         0.011174   
     15. B(B   9,B   6)                  2.0268         0.080799   
     16. B(B   9,B   4)                  2.7014         0.010000   
     17. B(B  10,B   7)                  3.0613         0.010000   
     18. B(B  10,B   8)                  2.0079         0.086623   
     19. B(B  10,B   0)                  3.1631         0.010000   
     20. B(B  11,B   9)                  3.1039         0.010000   
     21. B(B  11,B   5)                  2.9047         0.010000   
     22. B(B  11,B   3)                  2.7685         0.010000   
     23. B(B  11,B   2)                  2.5824         0.010496   
     24. A(B   2,B   0,B   8)           49.3854         0.108619   
     25. A(B   5,B   0,B   8)           95.1598         0.108407   
     26. A(B   2,B   0,B  10)           84.6375         0.113052   
     27. A(B   2,B   0,B   5)           96.9316         0.115452   
     28. A(B   8,B   0,B  10)           35.3338         0.106646   
     29. A(B   5,B   0,B  10)           88.8576         0.112793   
     30. A(B   4,B   1,B   5)          105.6332         0.167773   
     31. A(B   3,B   1,B   5)           42.7757         0.244856   
     32. A(B   3,B   1,B   4)           76.7332         0.162531   
     33. A(B   0,B   2,B  11)           77.5988         0.127980   
     34. A(B   8,B   2,B  11)           92.0622         0.139971   
     35. A(B   0,B   2,B   8)           72.4724         0.123966   
     36. A(B   4,B   3,B  11)           99.4471         0.121148   
     37. A(B   1,B   3,B   5)           65.5490         0.323479   
     38. A(B   1,B   3,B   4)           63.6871         0.149053   
     39. A(B   4,B   3,B   5)          110.9240         0.185787   
     40. A(B   5,B   3,B  11)           80.5650         0.214524   
     41. A(B   1,B   3,B  11)          130.1625         0.166883   
     42. A(B   1,B   4,B   9)          112.0738         0.130623   
     43. A(B   1,B   4,B   7)          155.5917         0.154111   
     44. A(B   1,B   4,B   6)          157.7914         0.156248   
     45. A(B   1,B   4,B   3)           39.5797         0.119352   
     46. A(B   7,B   4,B   9)           65.9728         0.161922   
     47. A(B   6,B   4,B   9)           47.8469         0.164316   
     48. A(B   3,B   4,B   6)          118.4312         0.143922   
     49. A(B   6,B   4,B   7)           36.0829         0.206819   
     50. A(B   3,B   4,B   7)          143.3851         0.142176   
     51. A(B   3,B   4,B   9)           77.9034         0.122993   
     52. A(B   0,B   5,B  11)           72.8754         0.118494   
     53. A(B   0,B   5,B   1)          102.8979         0.155097   
     54. A(B   3,B   5,B  11)           70.0904         0.201088   
     55. A(B   1,B   5,B  11)          126.9716         0.163504   
     56. A(B   1,B   5,B   3)           71.6752         0.340193   
     57. A(B   0,B   5,B   3)          125.8328         0.188441   
     58. A(B   4,B   6,B   7)           73.5516         0.324875   
     59. A(B   7,B   6,B   9)          104.4737         0.344826   
     60. A(B   4,B   6,B   9)           81.1598         0.220979   
     61. A(B   8,B   7,B  10)           36.7840         0.110522   
     62. A(B   6,B   7,B   8)           96.6122         0.179914   
     63. A(B   6,B   7,B  10)          118.5424         0.197238   
     64. A(B   4,B   7,B   8)           83.0479         0.134412   
     65. A(B   4,B   7,B  10)           67.4607         0.143064   
     66. A(B   4,B   7,B   6)           70.3654         0.317379   
     67. A(B   7,B   8,B   9)           53.1619         0.121507   
     68. A(B   0,B   8,B   7)          119.2585         0.105131   
     69. A(B   2,B   8,B   7)          141.8258         0.117750   
     70. A(B   7,B   8,B  10)           65.9188         0.140677   
     71. A(B   0,B   8,B   2)           58.1423         0.114654   
     72. A(B   2,B   8,B  10)          123.6255         0.171185   
     73. A(B   0,B   8,B  10)           65.6555         0.135112   
     74. A(B   0,B   8,B   9)          104.5769         0.118007   
     75. A(B   2,B   8,B   9)           89.2884         0.140698   
     76. A(B   9,B   8,B  10)          100.9141         0.181926   
     77. A(B   6,B   9,B   8)          105.4856         0.180473   
     78. A(B   8,B   9,B  11)           83.9381         0.126354   
     79. A(B   6,B   9,B  11)          148.5910         0.147453   
     80. A(B   4,B   9,B  11)          100.3986         0.122357   
     81. A(B   4,B   9,B   8)           89.1232         0.141201   
     82. A(B   4,B   9,B   6)           50.9933         0.170686   
     83. A(B   0,B  10,B   7)          135.5962         0.112544   
     84. A(B   7,B  10,B   8)           77.2973         0.150524   
     85. A(B   0,B  10,B   8)           79.0107         0.145532   
     86. A(B   3,B  11,B   5)           29.3446         0.126230   
     87. A(B   5,B  11,B   9)           94.6826         0.117170   
     88. A(B   2,B  11,B   5)          112.0724         0.132463   
     89. A(B   2,B  11,B   9)           80.9043         0.125828   
     90. A(B   3,B  11,B   9)           76.5546         0.120547   
     91. A(B   2,B  11,B   3)          129.8592         0.137673   
     92. D(B  11,B   2,B   0,B  10)     93.5302         0.010000   
     93. D(B   8,B   2,B   0,B   5)    -90.8647         0.010000   
     94. D(B  11,B   2,B   0,B   5)      5.3402         0.010000   
     95. D(B  11,B   2,B   0,B   8)     96.2049         0.010000   
     96. D(B   8,B   2,B   0,B  10)     -2.6747         0.010000   
     97. D(B   5,B   3,B   1,B   4)   -131.4917         0.010000   
     98. D(B  11,B   3,B   1,B   4)    -79.7621         0.010000   
     99. D(B   4,B   3,B   1,B   5)    131.4917         0.010000   
    100. D(B  11,B   3,B   1,B   5)     51.7296         0.010000   
    101. D(B   7,B   4,B   3,B   1)   -140.2045         0.010000   
    102. D(B   7,B   4,B   1,B   3)    112.5119         0.010000   
    103. D(B   9,B   4,B   1,B   3)     32.2778         0.010000   
    104. D(B   7,B   4,B   1,B   5)     80.6250         0.010000   
    105. D(B   9,B   4,B   3,B   1)   -149.5943         0.010000   
    106. D(B   7,B   4,B   3,B   5)    -93.3169         0.010000   
    107. D(B   6,B   4,B   1,B   5)    -22.2873         0.010000   
    108. D(B   6,B   4,B   3,B   5)   -129.0021         0.010000   
    109. D(B   6,B   4,B   3,B  11)    -45.5651         0.010000   
    110. D(B   6,B   4,B   1,B   3)      9.5996         0.010000   
    111. D(B   6,B   4,B   3,B   1)   -175.8896         0.010000   
    112. D(B   9,B   4,B   1,B   5)      0.3909         0.010000   
    113. D(B   7,B   4,B   3,B  11)     -9.8799         0.010000   
    114. D(B  11,B   5,B   1,B   3)    -45.7071         0.010000   
    115. D(B   3,B   5,B   0,B   8)     -5.9541         0.010000   
    116. D(B   3,B   5,B   0,B   2)     43.6962         0.010000   
    117. D(B   1,B   5,B   0,B   8)     70.6023         0.010000   
    118. D(B   3,B   5,B   0,B  10)    -40.7611         0.010000   
    119. D(B   1,B   5,B   0,B  10)     35.7953         0.010000   
    120. D(B   1,B   5,B   0,B   2)    120.2526         0.010000   
    121. D(B   3,B   5,B   1,B   4)     49.2063         0.010000   
    122. D(B  11,B   5,B   1,B   4)      3.4992         0.010000   
    123. D(B   0,B   5,B   3,B  11)    -49.6233         0.025966   
    124. D(B   0,B   5,B   3,B   1)     92.9163         0.025966   
    125. D(B  11,B   5,B   3,B   1)    142.5396         0.025966   
    126. D(B   1,B   5,B   3,B   4)    -45.9591         0.025966   
    127. D(B  11,B   5,B   3,B   4)     96.5805         0.025966   
    128. D(B   1,B   5,B   3,B  11)   -142.5396         0.025966   
    129. D(B   0,B   5,B   1,B   4)    -74.6295         0.010000   
    130. D(B   0,B   5,B   1,B   3)   -123.8358         0.010000   
    131. D(B   9,B   6,B   4,B   3)     35.7525         0.010000   
    132. D(B   9,B   6,B   4,B   1)     28.8127         0.010000   
    133. D(B   9,B   6,B   4,B   7)   -108.0382         0.010000   
    134. D(B   7,B   6,B   4,B   3)    143.7906         0.010000   
    135. D(B   7,B   6,B   4,B   1)    136.8509         0.010000   
    136. D(B   7,B   6,B   4,B   9)    108.0382         0.010000   
    137. D(B   4,B   7,B   6,B   9)     76.0132         0.059998   
    138. D(B   8,B   7,B   6,B   4)    -80.1698         0.059998   
    139. D(B  10,B   7,B   4,B   1)     -7.0647         0.010000   
    140. D(B  10,B   7,B   6,B   9)     27.1103         0.059998   
    141. D(B  10,B   7,B   4,B   3)     73.6387         0.010000   
    142. D(B   8,B   7,B   6,B   9)     -4.1566         0.059998   
    143. D(B  10,B   7,B   4,B   9)     83.6978         0.010000   
    144. D(B  10,B   7,B   4,B   6)    134.2127         0.010000   
    145. D(B   6,B   7,B   4,B   3)    -60.5740         0.010000   
    146. D(B  10,B   7,B   6,B   4)    -48.9029         0.059998   
    147. D(B   6,B   7,B   4,B   9)    -50.5150         0.010000   
    148. D(B   6,B   7,B   4,B   1)   -141.2774         0.010000   
    149. D(B   9,B   8,B   0,B  10)     95.5703         0.010000   
    150. D(B   2,B   8,B   0,B  10)    175.3921         0.010000   
    151. D(B  10,B   8,B   0,B   5)    -80.6775         0.010000   
    152. D(B  10,B   8,B   0,B   2)   -175.3921         0.010000   
    153. D(B   9,B   8,B   0,B   2)    -79.8219         0.010000   
    154. D(B   2,B   8,B   0,B   5)     94.7146         0.010000   
    155. D(B   0,B   8,B   7,B  10)    -39.8322         0.010000   
    156. D(B   0,B   8,B   7,B   6)     90.5773         0.010000   
    157. D(B   2,B   8,B   7,B  10)   -114.3882         0.010000   
    158. D(B   2,B   8,B   7,B   6)     16.0212         0.010000   
    159. D(B  10,B   8,B   7,B   4)     61.1974         0.010000   
    160. D(B  10,B   8,B   7,B   6)    130.4094         0.010000   
    161. D(B   7,B   8,B   2,B   0)     98.0838         0.010000   
    162. D(B   9,B   8,B   2,B  11)     31.3951         0.010000   
    163. D(B   9,B   8,B   2,B   0)    107.7014         0.010000   
    164. D(B   0,B   8,B   2,B  11)    -76.3064         0.010000   
    165. D(B   2,B   8,B   7,B   4)    -53.1909         0.010000   
    166. D(B  10,B   8,B   2,B  11)    -71.2635         0.010000   
    167. D(B  10,B   8,B   2,B   0)      5.0429         0.010000   
    168. D(B   9,B   8,B   0,B   5)     14.8927         0.010000   
    169. D(B  11,B   9,B   8,B   0)     30.9055         0.010000   
    170. D(B  11,B   9,B   8,B  10)     98.3466         0.010000   
    171. D(B   6,B   9,B   8,B   7)     -2.6829         0.010000   
    172. D(B   6,B   9,B   8,B   0)   -118.5435         0.010000   
    173. D(B   6,B   9,B   8,B  10)    -51.1024         0.010000   
    174. D(B   4,B   9,B   6,B   7)    -70.3609         0.010000   
    175. D(B  11,B   9,B   6,B   4)    -28.2631         0.010000   
    176. D(B  11,B   9,B   6,B   7)    -98.6240         0.010000   
    177. D(B   8,B   9,B   6,B   4)     75.8275         0.010000   
    178. D(B   8,B   9,B   6,B   7)      5.4666         0.010000   
    179. D(B   8,B   9,B   4,B   3)    100.8442         0.010000   
    180. D(B   8,B   9,B   4,B   1)     80.4803         0.010000   
    181. D(B   6,B   9,B   8,B   2)   -175.2698         0.010000   
    182. D(B   8,B   9,B   4,B   7)    -73.0399         0.010000   
    183. D(B   8,B   9,B   4,B   6)   -110.8565         0.010000   
    184. D(B   6,B   9,B   4,B   3)   -148.2993         0.010000   
    185. D(B  11,B   9,B   8,B   2)    -25.8208         0.010000   
    186. D(B   6,B   9,B   4,B   1)   -168.6632         0.010000   
    187. D(B   6,B   9,B   4,B   7)     37.8166         0.010000   
    188. D(B   7,B  10,B   8,B   9)     40.9757         0.010000   
    189. D(B   7,B  10,B   8,B   2)    137.4667         0.010000   
    190. D(B   0,B  10,B   8,B   7)   -142.1671         0.010000   
    191. D(B   0,B  10,B   8,B   9)   -101.1914         0.010000   
    192. D(B   0,B  10,B   7,B   4)    -50.2729         0.010000   
    193. D(B   0,B  10,B   7,B   8)     59.3748         0.010000   
    194. D(B   0,B  10,B   7,B   6)     -0.0555         0.010000   
    195. D(B   8,B  10,B   7,B   4)   -109.6477         0.010000   
    196. D(B   8,B  10,B   7,B   6)    -59.4303         0.010000   
    197. D(B   0,B  10,B   8,B   2)     -4.7004         0.010000   
    198. D(B   7,B  10,B   0,B   5)     41.8085         0.010000   
    199. D(B   7,B  10,B   0,B   8)    -58.7748         0.010000   
    200. D(B   7,B  10,B   0,B   2)    -55.2632         0.010000   
    201. D(B   7,B  10,B   8,B   0)    142.1671         0.010000   
    202. D(B   8,B  10,B   0,B   5)    100.5833         0.010000   
    203. D(B   8,B  10,B   0,B   2)      3.5117         0.010000   
    204. D(B   2,B  11,B   5,B   0)      6.1124         0.010000   
    205. D(B   2,B  11,B   5,B   3)   -133.6270         0.010000   
    206. D(B   2,B  11,B   5,B   1)    -87.3511         0.010000   
    207. D(B   9,B  11,B   3,B   5)    126.6211         0.010000   
    208. D(B   9,B  11,B   3,B   1)     80.1950         0.010000   
    209. D(B   2,B  11,B   3,B   4)    -48.9268         0.010000   
    210. D(B   2,B  11,B   3,B   5)     60.9107         0.010000   
    211. D(B   2,B  11,B   3,B   1)     14.4845         0.010000   
    212. D(B   5,B  11,B   2,B   0)     -6.0063         0.010000   
    213. D(B   9,B  11,B   3,B   4)     16.7836         0.010000   
    214. D(B   3,B  11,B   2,B   8)     38.0200         0.010000   
    215. D(B   3,B  11,B   2,B   0)    -33.5299         0.010000   
    216. D(B   9,B  11,B   2,B   8)    -25.8485         0.010000   
    217. D(B   9,B  11,B   5,B   1)     -5.2800         0.010000   
    218. D(B   9,B  11,B   2,B   0)    -97.3984         0.010000   
    219. D(B   3,B  11,B   9,B   8)   -107.2743         0.010000   
    220. D(B   3,B  11,B   9,B   6)      2.6813         0.010000   
    221. D(B   2,B  11,B   9,B   4)    115.5928         0.010000   
    222. D(B   2,B  11,B   9,B   8)     27.6062         0.010000   
    223. D(B   2,B  11,B   9,B   6)    137.5618         0.010000   
    224. D(B   9,B  11,B   5,B   0)     88.1835         0.010000   
    225. D(B   3,B  11,B   9,B   4)    -19.2877         0.010000   
    226. D(B   9,B  11,B   5,B   3)    -51.5558         0.010000   
    -----------------------------------------------------------------

Number of atoms                         .... 12
Number of degrees of freedom            .... 226


         *************************************************************
         *                GEOMETRY OPTIMIZATION CYCLE   1            *
         *************************************************************
---------------------------------
CARTESIAN COORDINATES (ANGSTROEM)
---------------------------------
  B    -2.124762   -1.352604    1.712285
  B     1.379498   -2.575403    0.336364
  B    -3.255801    0.814723   -0.087318
  B     0.433212   -2.057371   -1.367925
  B     2.137063    0.134476   -0.031285
  B    -0.403609   -2.722445   -0.398563
  B     2.124235    2.082777   -0.878185
  B     2.193098    2.245403    0.438473
  B    -0.989533    1.790008    1.041207
  B     0.192054    1.579211   -1.226036
  B     0.229201    0.701256    2.207728
  B    -1.914657   -0.640032   -1.746744

----------------------------
CARTESIAN COORDINATES (A.U.)
----------------------------
  NO LB    ZA    FRAG    MASS        X           Y           Z
   0 B   5.0000    0    10.810   -4.015218   -2.556052    3.235750
   1 B   5.0000    0    10.810    2.606873   -4.866807    0.635635
   2 B   5.0000    0    10.810   -6.152572    1.539603   -0.165007
   3 B   5.0000    0    10.810    0.818652   -3.887867   -2.585004
   4 B   5.0000    0    10.810    4.038464    0.254123   -0.059120
   5 B   5.0000    0    10.810   -0.762710   -5.144676   -0.753175
   6 B   5.0000    0    10.810    4.014222    3.935879   -1.659529
   7 B   5.0000    0    10.810    4.144355    4.243198    0.828593
   8 B   5.0000    0    10.810   -1.869947    3.382625    1.967597
   9 B   5.0000    0    10.810    0.362930    2.984277   -2.316872
  10 B   5.0000    0    10.810    0.433128    1.325181    4.172001
  11 B   5.0000    0    10.810   -3.618177   -1.209484   -3.300867

      -----------------------------------------------------------      
     |                   =====================                   |     
     |                           x T B                           |     
     |                   =====================                   |     
     |                         S. Grimme                         |     
     |          Mulliken Center for Theoretical Chemistry        |     
     |                    University of Bonn                     |     
      -----------------------------------------------------------      

   * xtb version 6.6.1 (unknown) compiled by 'builduser@buildhost' on 2023-08-07

   xtb is free software: you can redistribute it and/or modify it under
   the terms of the GNU Lesser General Public License as published by
   the Free Software Foundation, either version 3 of the License, or
   (at your option) any later version.
   
   xtb is distributed in the hope that it will be useful,
   but WITHOUT ANY WARRANTY; without even the implied warranty of
   MERCHANTABILITY or FITNESS FOR A PARTICULAR PURPOSE.  See the
   GNU Lesser General Public License for more details.
   
   Cite this work as:
   * C. Bannwarth, E. Caldeweyher, S. Ehlert, A. Hansen, P. Pracht,
     J. Seibert, S. Spicher, S. Grimme, WIREs Comput. Mol. Sci., 2020, 11,
     e01493. DOI: 10.1002/wcms.1493
   
   for GFN2-xTB:
   * C. Bannwarth, S. Ehlert and S. Grimme., J. Chem. Theory Comput., 2019,
     15, 1652-1671. DOI: 10.1021/acs.jctc.8b01176
   for GFN1-xTB:
   * S. Grimme, C. Bannwarth, P. Shushkov, J. Chem. Theory Comput., 2017,
     13, 1989-2009. DOI: 10.1021/acs.jctc.7b00118
   for GFN0-xTB:
   * P. Pracht, E. Caldeweyher, S. Ehlert, S. Grimme, ChemRxiv, 2019, preprint.
     DOI: 10.26434/chemrxiv.8326202.v1
   for GFN-FF:
   * S. Spicher and S. Grimme, Angew. Chem. Int. Ed., 2020, 59, 15665-15673.
     DOI: 10.1002/anie.202004239
   
   for ALPB and GBSA implicit solvation:
   * S. Ehlert, M. Stahn, S. Spicher, S. Grimme, J. Chem. Theory Comput.,
     2021, 17, 4250-4261. DOI: 10.1021/acs.jctc.1c00471
   
   for DFT-D4:
   * E. Caldeweyher, C. Bannwarth and S. Grimme, J. Chem. Phys., 2017,
     147, 034112. DOI: 10.1063/1.4993215
   * E. Caldeweyher, S. Ehlert, A. Hansen, H. Neugebauer, S. Spicher,
     C. Bannwarth and S. Grimme, J. Chem. Phys., 2019, 150, 154122.
     DOI: 10.1063/1.5090222
   * E. Caldeweyher, J.-M. Mewes, S. Ehlert and S. Grimme, Phys. Chem. Chem. Phys.
     2020, 22, 8499-8512. DOI: 10.1039/D0CP00502A
   
   for sTDA-xTB:
   * S. Grimme and C. Bannwarth, J. Chem. Phys., 2016, 145, 054103.
     DOI: 10.1063/1.4959605
   
   in the mass-spec context:
   * V. Asgeirsson, C. Bauer and S. Grimme, Chem. Sci., 2017, 8, 4879.
     DOI: 10.1039/c7sc00601b
   * J. Koopman and S. Grimme, ACS Omega 2019, 4, 12, 15120-15133.
     DOI: 10.1021/acsomega.9b02011
   
   for metadynamics refer to:
   * S. Grimme, J. Chem. Theory Comput., 2019, 155, 2847-2862
     DOI: 10.1021/acs.jctc.9b00143
   
   for SPH calculations refer to:
   * S. Spicher and S. Grimme, J. Chem. Theory Comput., 2021, 17, 1701-1714
     DOI: 10.1021/acs.jctc.0c01306
   
   with help from (in alphabetical order)
   P. Atkinson, C. Bannwarth, F. Bohle, G. Brandenburg, E. Caldeweyher
   M. Checinski, S. Dohm, S. Ehlert, S. Ehrlich, I. Gerasimov, C. Hölzer
   A. Katbashev, J. Koopman, C. Lavigne, S. Lehtola, F. März, M. Müller,
   F. Musil, H. Neugebauer, J. Pisarek, C. Plett, P. Pracht, F. Pultar,
   J. Seibert, P. Shushkov, S. Spicher, M. Stahn, M. Steiner, T. Strunk,
   J. Stückrath, T. Rose, and J. Unsleber
   
 * started run on 2026/04/17 at 12:14:10.813     

           -------------------------------------------------
          |                Calculation Setup                |
           -------------------------------------------------

          program call               : /usr/bin/xtb random_d1.90_002_m1_XTB.xyz --grad -c 0 -u 0 -P 1 --namespace random_d1.90_002_m1 --input random_d1.90_002_m1_XTB.input.tmp --acc 0.200000
          calculation namespace      : random_d1.90_002_m1
          coordinate file            : random_d1.90_002_m1_XTB.xyz
          omp threads                :                     1

   ID    Z sym.   atoms
    1    5 B      1-12

molecular fragmentation (1/2 indicates fragments):
122222222222
# atoms in fragment 1/2:     1    11
 fragment masses (1/2) :       10.81      118.92
CMA distance (Bohr)    :   6.279
constraining FC (au)   :  0.0500

           -------------------------------------------------
          |                 G F N 2 - x T B                 |
           -------------------------------------------------

        Reference                      10.1021/acs.jctc.8b01176
      * Hamiltonian:
        H0-scaling (s, p, d)           1.850000    2.230000    2.230000
        zeta-weighting                 0.500000
      * Dispersion:
        s8                             2.700000
        a1                             0.520000
        a2                             5.000000
        s9                             5.000000
      * Repulsion:
        kExp                           1.500000    1.000000
        rExp                           1.000000
      * Coulomb:
        alpha                          2.000000
        third order                    shell-resolved
        anisotropic                    true
        a3                             3.000000
        a5                             4.000000
        cn-shift                       1.200000
        cn-exp                         4.000000
        max-rad                        5.000000


          ...................................................
          :                      SETUP                      :
          :.................................................:
          :  # basis functions                  48          :
          :  # atomic orbitals                  48          :
          :  # shells                           24          :
          :  # electrons                        36          :
          :  max. iterations                   250          :
          :  Hamiltonian                  GFN2-xTB          :
          :  restarted?                      false          :
          :  GBSA solvation                  false          :
          :  PC potential                    false          :
          :  electronic temp.          300.0000000     K    :
          :  accuracy                    0.2000000          :
          :  -> integral cutoff          0.3198970E+02      :
          :  -> integral neglect         0.2000000E-08      :
          :  -> SCF convergence          0.2000000E-06 Eh   :
          :  -> wf. convergence          0.2000000E-04 e    :
          :  Broyden damping             0.4000000          :
          ...................................................

 iter      E             dE          RMSdq      gap      omega  full diag
   1    -11.4521590 -0.114522E+02  0.178E+01    0.13       0.0  T
   2      9.2440167  0.206962E+02  0.259E+01    0.15       1.0  T
   3      4.9058810 -0.433814E+01  0.228E+01    0.14       1.0  T
   4     -0.7051086 -0.561099E+01  0.222E+01    0.26       1.0  T
   5      7.2790681  0.798418E+01  0.221E+01    0.11       1.0  T
   6     -0.2374117 -0.751648E+01  0.179E+01    0.20       1.0  T
   7     -3.7583887 -0.352098E+01  0.174E+01    0.04       1.0  T
   8    -10.4296140 -0.667123E+01  0.113E+01    0.11       1.0  T
   9    -10.3907253  0.388887E-01  0.117E+01    0.23       1.0  T
  10    -11.3930414 -0.100232E+01  0.971E+00    0.18       1.0  T
  11    -12.0204555 -0.627414E+00  0.878E+00    0.12       1.0  T
  12    -11.6806245  0.339831E+00  0.896E+00    0.12       1.0  T
  13    -11.6344587  0.461658E-01  0.908E+00    0.16       1.0  T
  14    -11.5703508  0.641079E-01  0.868E+00    0.15       1.0  T
  15    -11.7288366 -0.158486E+00  0.873E+00    0.18       1.0  T
  16    -12.6202110 -0.891374E+00  0.608E+00    0.10       1.0  T
  17    -12.4253298  0.194881E+00  0.606E+00    0.07       1.0  T
  18    -12.6244210 -0.199091E+00  0.566E+00    0.15       1.0  T
  19    -12.4864638  0.137957E+00  0.580E+00    0.13       1.0  T
  20    -12.4720917  0.143721E-01  0.586E+00    0.13       1.0  T
  21    -12.4784665 -0.637481E-02  0.581E+00    0.13       1.0  T
  22    -12.3707076  0.107759E+00  0.579E+00    0.12       1.0  T
  23    -12.4731632 -0.102456E+00  0.519E+00    0.13       1.0  T
  24    -12.5527628 -0.795996E-01  0.485E+00    0.12       1.0  T
  25    -12.6040967 -0.513339E-01  0.462E+00    0.11       1.0  T
  26    -12.5057470  0.983497E-01  0.502E+00    0.12       1.0  T
  27    -12.6185865 -0.112839E+00  0.445E+00    0.10       1.0  T
  28    -12.6215175 -0.293104E-02  0.448E+00    0.10       1.0  T
  29    -12.8030114 -0.181494E+00  0.370E+00    0.12       1.0  T
  30    -12.7656231  0.373883E-01  0.378E+00    0.11       1.0  T
  31    -12.8921892 -0.126566E+00  0.294E+00    0.11       1.0  T
  32    -12.9339714 -0.417822E-01  0.250E+00    0.11       1.0  T
  33    -12.9462523 -0.122810E-01  0.237E+00    0.11       1.0  T
  34    -12.9394686  0.678369E-02  0.233E+00    0.11       1.0  T
  35    -13.0063834 -0.669148E-01  0.183E+00    0.13       1.0  T
  36    -13.0138006 -0.741713E-02  0.149E+00    0.12       1.0  T
  37    -13.0139233 -0.122708E-03  0.148E+00    0.12       1.0  T
  38    -13.0181004 -0.417715E-02  0.108E+00    0.12       1.0  T
  39    -13.0198422 -0.174179E-02  0.106E+00    0.12       1.0  T
  40    -13.0216544 -0.181214E-02  0.934E-01    0.12       1.0  T
  41    -13.0218512 -0.196899E-03  0.925E-01    0.12       1.0  T
  42    -13.0221530 -0.301776E-03  0.904E-01    0.12       1.0  T
  43    -13.0253735 -0.322052E-02  0.578E-01    0.11       1.0  T
  44    -13.0273547 -0.198114E-02  0.442E-01    0.11       1.0  T
  45    -13.0275438 -0.189156E-03  0.391E-01    0.11       1.0  T
  46    -13.0277860 -0.242169E-03  0.349E-01    0.11       1.0  T
  47    -13.0276715  0.114538E-03  0.339E-01    0.11       1.0  T
  48    -13.0277641 -0.926063E-04  0.319E-01    0.11       1.0  T
  49    -13.0284909 -0.726855E-03  0.224E-01    0.11       1.0  T
  50    -13.0287662 -0.275218E-03  0.164E-01    0.11       1.0  T
  51    -13.0290529 -0.286789E-03  0.960E-02    0.11       1.0  T
  52    -13.0290777 -0.247894E-04  0.794E-02    0.11       1.0  T
  53    -13.0291124 -0.347076E-04  0.628E-02    0.11       1.0  T
  54    -13.0291193 -0.686556E-05  0.346E-02    0.11       1.0  T
  55    -13.0291273 -0.794666E-05  0.286E-02    0.11       1.0  T
  56    -13.0291250  0.223277E-05  0.238E-02    0.11       1.2  T
  57    -13.0291264 -0.135258E-05  0.207E-02    0.11       1.4  T
  58    -13.0291286 -0.220582E-05  0.145E-02    0.11       2.0  T
  59    -13.0291295 -0.912663E-06  0.103E-02    0.11       2.8  T
  60    -13.0291297 -0.167375E-06  0.750E-03    0.11       3.8  T
  61    -13.0291300 -0.380491E-06  0.442E-03    0.11       6.5  T
  62    -13.0291301 -0.743968E-07  0.342E-03    0.11       8.4  T
  63    -13.0291302 -0.795913E-07  0.198E-03    0.11      14.6  T
  64    -13.0291302 -0.615161E-08  0.163E-03    0.11      17.7  T
  65    -13.0291302 -0.183577E-07  0.931E-04    0.11      31.0  T
  66    -13.0291302  0.859101E-09  0.841E-04    0.11      34.3  T
  67    -13.0291302 -0.118041E-08  0.673E-04    0.11      42.9  T
  68    -13.0291302 -0.128702E-08  0.384E-04    0.11      75.3  T
  69    -13.0291302 -0.497097E-09  0.239E-04    0.11     120.6  T
  70    -13.0291302 -0.449457E-09  0.125E-04    0.11     231.1  T
  71    -13.0291302 -0.680167E-11  0.115E-04    0.11     251.6  T

   *** convergence criteria satisfied after 71 iterations ***

         #    Occupation            Energy/Eh            Energy/eV
      -------------------------------------------------------------
         1        2.0000           -0.4182365             -11.3808
       ...           ...                  ...                  ...
        12        2.0000           -0.2852485              -7.7620
        13        2.0000           -0.2750059              -7.4833
        14        2.0000           -0.2668707              -7.2619
        15        2.0000           -0.2626406              -7.1468
        16        2.0000           -0.2551706              -6.9435
        17        1.9996           -0.2515227              -6.8443
        18        1.8003           -0.2456097              -6.6834 (HOMO)
        19        0.1984           -0.2414244              -6.5695 (LUMO)
        20        0.0015           -0.2366846              -6.4405
        21        0.0002           -0.2347839              -6.3888
        22        0.0000           -0.2320052              -6.3132
        23                         -0.2270157              -6.1774
       ...                                ...                  ...
        48                          1.7608661              47.9156
      -------------------------------------------------------------
                  HL-Gap            0.0041853 Eh            0.1139 eV
             Fermi-level           -0.2435204 Eh           -6.6265 eV

 SCC (total)                   0 d,  0 h,  0 min,  0.075 sec
 SCC setup                      ...        0 min,  0.000 sec (  0.165%)
 Dispersion                     ...        0 min,  0.000 sec (  0.153%)
 classical contributions        ...        0 min,  0.000 sec (  0.046%)
 integral evaluation            ...        0 min,  0.003 sec (  3.451%)
 iterations                     ...        0 min,  0.068 sec ( 90.039%)
 molecular gradient             ...        0 min,  0.004 sec (  5.774%)
 printout                       ...        0 min,  0.000 sec (  0.338%)

         :::::::::::::::::::::::::::::::::::::::::::::::::::::
         ::                     SUMMARY                     ::
         :::::::::::::::::::::::::::::::::::::::::::::::::::::
         :: total energy             -12.899800088329 Eh    ::
         :: gradient norm              0.341319320953 Eh/a0 ::
         :: HOMO-LUMO gap              0.113886532538 eV    ::
         ::.................................................::
         :: SCC energy               -13.029130220334 Eh    ::
         :: -> isotropic ES            0.044023595651 Eh    ::
         :: -> anisotropic ES          0.001282944399 Eh    ::
         :: -> anisotropic XC         -0.029520919087 Eh    ::
         :: -> dispersion             -0.024024323487 Eh    ::
         :: repulsion energy           0.129079998081 Eh    ::
         :: add. restraining           0.000000000000 Eh    ::
         :: total charge              -0.000000000000 e     ::
         :::::::::::::::::::::::::::::::::::::::::::::::::::::


Property printout bound to 'properties.out'

           -------------------------------------------------
          | TOTAL ENERGY              -12.899800088329 Eh   |
          | GRADIENT NORM               0.341319320953 Eh/α |
          | HOMO-LUMO GAP               0.113886532538 eV   |
           -------------------------------------------------

------------------------------------------------------------------------
 * finished run on 2026/04/17 at 12:14:10.900     
------------------------------------------------------------------------
 total:
 * wall-time:     0 d,  0 h,  0 min,  0.087 sec
 *  cpu-time:     0 d,  0 h,  0 min,  0.087 sec
 * ratio c/w:     0.999 speedup
 SCF:
 * wall-time:     0 d,  0 h,  0 min,  0.075 sec
 *  cpu-time:     0 d,  0 h,  0 min,  0.075 sec
 * ratio c/w:     1.000 speedup


-------------------------   --------------------
FINAL SINGLE POINT ENERGY       -12.899800088330
-------------------------   --------------------


-------------
DIPOLE MOMENT
-------------
                                X             Y             Z
Total Dipole Moment    :      0.68900       1.25000      -0.18600
                        -----------------------------------------
Magnitude (a.u.)       :      1.43938
Magnitude (Debye)      :      3.65862


------------------
CARTESIAN GRADIENT
------------------

   1   B   :   -0.012393294   -0.025719559    0.022652233
   2   B   :    0.060152825   -0.039496507    0.056184298
   3   B   :   -0.074349076    0.031482728    0.000497390
   4   B   :    0.001261269   -0.009623690   -0.020157478
   5   B   :    0.016047896   -0.037934669   -0.016904653
   6   B   :   -0.038021604   -0.003654804   -0.032682179
   7   B   :    0.068326796    0.064105954    0.184539443
   8   B   :   -0.005672173    0.020996547   -0.182008727
   9   B   :   -0.029998843    0.066042669    0.006916823
  10   B   :   -0.026401446   -0.001502343   -0.044403745
  11   B   :    0.047049954   -0.036844574    0.068308082
  12   B   :   -0.006002304   -0.027851753   -0.042941487

Difference to translation invariance:
           :    0.0000000000   -0.0000000000    0.0000000000

Difference to rotation invariance:
           :    0.0000000357    0.0000000459    0.0000000181

Norm of the Cartesian gradient     ...    0.3413193210
RMS gradient                       ...    0.0568865535
MAX gradient                       ...    0.1845394434
------------------------------------------------------------------------------
                         ORCA GEOMETRY RELAXATION STEP
------------------------------------------------------------------------------

Reading the OPT-File                    .... done
Getting information on internals        .... done
Copying old internal coords+grads       .... done
Making the new internal coordinates     .... (2022 redundants) done
Validating the new internal coordinates .... (2022 redundants) done
Calculating the B-matrix                .... done
Calculating the G,G- and P matrices     .... done
Transforming gradient to internals      .... done
Projecting the internal gradient        .... done
Number of atoms                         ....  12
Number of internal coordinates          .... 226
Current Energy                          ....   -12.899800088 Eh
Current gradient norm                   ....     0.341319321 Eh/bohr
Maximum allowed component of the step   ....  0.300
Current trust radius                    ....  0.300
Evaluating the initial hessian          ....  (Almloef) done
Projecting the Hessian                  .... done
Forming the augmented Hessian           .... done
Diagonalizing the augmented Hessian     .... done
Last element of RFO vector              ....  0.769336181
Lowest eigenvalues of augmented Hessian:
 -0.134117521  0.011470487  0.013430474  0.014086181  0.015086737
Length of the computed step             ....  0.830383595
Warning: the length of the step is outside the trust region - taking restricted step instead
The input lambda is                     ....     0.010211
   iter:   5  x=    0.002490  g=71226.951790 f(x)=   216.597295
   iter:  10  x=   -0.067743  g=  143.549349 f(x)=     4.113271
   iter:  15  x=   -0.436774  g=    0.627290 f(x)=     0.046367
   iter:  20  x=   -0.464926  g=    0.325915 f(x)=     0.000000
The output lambda is                    ....    -0.464926 (20 iterations)
The final length of the internal step   ....  0.300000000
Converting the step to Cartesian space:
 Initial RMS(Int)=    0.0199557032
Transforming coordinates:
 Iter   0:  RMS(Cart)=    0.0348457042 RMS(Int)=    0.0199444044
done
Storing new coordinates                 .... done

                                .--------------------.
          ----------------------|Geometry convergence|-------------------------
          Item                value                   Tolerance       Converged
          ---------------------------------------------------------------------
          RMS gradient        0.0126549182            0.0000300000      NO
          MAX gradient        0.0950309559            0.0001000000      NO
          RMS step            0.0199557032            0.0006000000      NO
          MAX step            0.1002487012            0.0010000000      NO
          -------------------------------------------------------------------------
          ........................................................
          Max(Bonds)      0.0530      Max(Angles)    1.60
          Max(Dihed)        1.49      Max(Improp)    0.00
          ---------------------------------------------------------------------

The optimization has not yet converged - more geometry cycles are needed


    ---------------------------------------------------------------------------
                         Redundant Internal Coordinates
                            (Angstroem and degrees)

        Definition                    Value    dE/dq     Step     New-Value
    ----------------------------------------------------------------------------
     1. B(B   2,B   0)                3.0356  0.026057 -0.0291    3.0065   
     2. B(B   3,B   1)                2.0170  0.031379 -0.0304    1.9866   
     3. B(B   4,B   1)                2.8377  0.018734 -0.0203    2.8174   
     4. B(B   4,B   3)                3.0812  0.007840 -0.0129    3.0683   
     5. B(B   5,B   3)                1.4430  0.000426 -0.0021    1.4409   
     6. B(B   5,B   0)                3.0487  0.024453 -0.0264    3.0223   
     7. B(B   5,B   1)                1.9342  0.042690 -0.0379    1.8963   
     8. B(B   6,B   4)                2.1244  0.009836 -0.0174    2.1070   
     9. B(B   7,B   4)                2.1633  0.004952 -0.0166    2.1467   
    10. B(B   7,B   6)                1.3284 -0.095031  0.0465    1.3749   
    11. B(B   8,B   7)                3.2711  0.023558 -0.0255    3.2455   
    12. B(B   8,B   0)                3.4081  0.017662 -0.0192    3.3889   
    13. B(B   8,B   2)                2.7131  0.032327 -0.0366    2.6765   
    14. B(B   9,B   8)                2.5653  0.007997 -0.0210    2.5444   
    15. B(B   9,B   6)                2.0268  0.044499 -0.0387    1.9881   
    16. B(B   9,B   4)                2.7014  0.014338 -0.0213    2.6802   
    17. B(B  10,B   7)                3.0613  0.031770 -0.0303    3.0310   
    18. B(B  10,B   8)                2.0079  0.043731 -0.0462    1.9617   
    19. B(B  10,B   0)                3.1631  0.023219 -0.0243    3.1388   
    20. B(B  11,B   9)                3.1039  0.022897 -0.0226    3.0814   
    21. B(B  11,B   5)                2.9047  0.011947 -0.0121    2.8926   
    22. B(B  11,B   3)                2.7685  0.018288 -0.0190    2.7496   
    23. B(B  11,B   2)                2.5824  0.049840 -0.0530    2.5293   
    24. A(B   2,B   0,B   8)           49.39  0.002771   -0.35     49.04   
    25. A(B   5,B   0,B   8)           95.16  0.004565   -0.44     94.72   
    26. A(B   2,B   0,B  10)           84.64  0.008263   -0.98     83.66   
    27. A(B   2,B   0,B   5)           96.93  0.003849   -0.38     96.56   
    28. A(B   8,B   0,B  10)           35.33  0.005458   -0.62     34.71   
    29. A(B   5,B   0,B  10)           88.86  0.002817   -0.32     88.53   
    30. A(B   4,B   1,B   5)          105.63 -0.013394    1.19    106.82   
    31. A(B   3,B   1,B   5)           42.78 -0.007489    0.70     43.47   
    32. A(B   3,B   1,B   4)           76.73 -0.006002    0.51     77.25   
    33. A(B   0,B   2,B  11)           77.60 -0.004756    0.52     78.12   
    34. A(B   8,B   2,B  11)           92.06 -0.003199    0.38     92.44   
    35. A(B   0,B   2,B   8)           72.47 -0.003757    0.47     72.95   
    36. A(B   4,B   3,B  11)           99.45 -0.000071   -0.12     99.33   
    37. A(B   1,B   3,B   5)           65.55  0.007542   -0.63     64.92   
    38. A(B   1,B   3,B   4)           63.69  0.001480   -0.10     63.59   
    39. A(B   4,B   3,B   5)          110.92  0.001921   -0.13    110.80   
    40. A(B   5,B   3,B  11)           80.56 -0.001615    0.22     80.78   
    41. A(B   1,B   3,B  11)          130.16  0.008325   -0.71    129.45   
    42. A(B   1,B   4,B   9)          112.07  0.009392   -0.66    111.41   
    43. A(B   1,B   4,B   7)          155.59  0.010338   -0.53    155.06   
    44. A(B   1,B   4,B   6)          157.79  0.021371   -1.52    156.27   
    45. A(B   1,B   4,B   3)           39.58  0.004523   -0.42     39.16   
    46. A(B   7,B   4,B   9)           65.97 -0.009860    0.57     66.54   
    47. A(B   6,B   4,B   9)           47.85  0.008561   -0.62     47.23   
    48. A(B   3,B   4,B   6)          118.43  0.016893   -1.11    117.32   
    49. A(B   6,B   4,B   7)           36.08 -0.025837    1.60     37.68   
    50. A(B   3,B   4,B   7)          143.39 -0.003556    0.27    143.66   
    51. A(B   3,B   4,B   9)           77.90  0.004547   -0.21     77.69   
    52. A(B   0,B   5,B  11)           72.88  0.000903   -0.16     72.72   
    53. A(B   0,B   5,B   1)          102.90  0.000182    0.05    102.95   
    54. A(B   3,B   5,B  11)           70.09  0.002901   -0.33     69.76   
    55. A(B   1,B   5,B  11)          126.97  0.006500   -0.73    126.24   
    56. A(B   1,B   5,B   3)           71.68 -0.000053   -0.07     71.60   
    57. A(B   0,B   5,B   3)          125.83 -0.000972    0.01    125.84   
    58. A(B   4,B   6,B   7)           73.55  0.012238   -0.83     72.72   
    59. A(B   7,B   6,B   9)          104.47  0.000270    0.06    104.54   
    60. A(B   4,B   6,B   9)           81.16 -0.006811    0.54     81.70   
    61. A(B   8,B   7,B  10)           36.78  0.004808   -0.56     36.23   
    62. A(B   6,B   7,B   8)           96.61  0.017315   -1.25     95.36   
    63. A(B   6,B   7,B  10)          118.54  0.020057   -1.55    117.00   
    64. A(B   4,B   7,B   8)           83.05  0.004086   -0.40     82.65   
    65. A(B   4,B   7,B  10)           67.46 -0.001702    0.01     67.47   
    66. A(B   4,B   7,B   6)           70.37  0.013599   -0.77     69.59   
    67. A(B   7,B   8,B   9)           53.16 -0.008963    0.46     53.62   
    68. A(B   0,B   8,B   7)          119.26 -0.005304    0.49    119.75   
    69. A(B   2,B   8,B   7)          141.83 -0.008027    0.47    142.29   
    70. A(B   7,B   8,B  10)           65.92  0.000888    0.01     65.93   
    71. A(B   0,B   8,B   2)           58.14  0.000987   -0.12     58.02   
    72. A(B   2,B   8,B  10)          123.63  0.001211   -0.14    123.49   
    73. A(B   0,B   8,B  10)           65.66  0.000127    0.01     65.66   
    74. A(B   0,B   8,B   9)          104.58 -0.004786    0.58    105.16   
    75. A(B   2,B   8,B   9)           89.29  0.000818    0.03     89.32   
    76. A(B   9,B   8,B  10)          100.91 -0.004783    0.34    101.25   
    77. A(B   6,B   9,B   8)          105.49 -0.009045    0.78    106.26   
    78. A(B   8,B   9,B  11)           83.94  0.006629   -0.64     83.30   
    79. A(B   6,B   9,B  11)          148.59 -0.000925    0.01    148.60   
    80. A(B   4,B   9,B  11)          100.40 -0.002728    0.17    100.57   
    81. A(B   4,B   9,B   8)           89.12  0.005768   -0.38     88.75   
    82. A(B   4,B   9,B   6)           50.99 -0.001750    0.08     51.07   
    83. A(B   0,B  10,B   7)          135.60 -0.014530    1.29    136.88   
    84. A(B   7,B  10,B   8)           77.30 -0.005696    0.55     77.85   
    85. A(B   0,B  10,B   8)           79.01 -0.005585    0.62     79.63   
    86. A(B   3,B  11,B   5)           29.34 -0.001287    0.11     29.45   
    87. A(B   5,B  11,B   9)           94.68 -0.000467    0.08     94.76   
    88. A(B   2,B  11,B   5)          112.07  0.000731   -0.06    112.01   
    89. A(B   2,B  11,B   9)           80.90 -0.003229    0.18     81.08   
    90. A(B   3,B  11,B   9)           76.55  0.001606   -0.08     76.48   
    91. A(B   2,B  11,B   3)          129.86 -0.000161   -0.00    129.86   
    92. D(B  11,B   2,B   0,B  10)     93.53 -0.000405   -0.01     93.52   
    93. D(B   8,B   2,B   0,B   5)    -90.86 -0.003041    0.29    -90.57   
    94. D(B  11,B   2,B   0,B   5)      5.34 -0.003910    0.40      5.74   
    95. D(B  11,B   2,B   0,B   8)     96.20 -0.000868    0.11     96.31   
    96. D(B   8,B   2,B   0,B  10)     -2.67  0.000463   -0.12     -2.79   
    97. D(B   5,B   3,B   1,B   4)   -131.49  0.006621   -0.57   -132.07   
    98. D(B  11,B   3,B   1,B   4)    -79.76  0.004154   -0.19    -79.95   
    99. D(B   4,B   3,B   1,B   5)    131.49 -0.006621    0.57    132.07   
   100. D(B  11,B   3,B   1,B   5)     51.73 -0.002467    0.38     52.11   
   101. D(B   7,B   4,B   3,B   1)   -140.20 -0.021481    1.25   -138.96   
   102. D(B   7,B   4,B   1,B   3)    112.51 -0.004295    0.10    112.61   
   103. D(B   9,B   4,B   1,B   3)     32.28 -0.001109    0.17     32.45   
   104. D(B   7,B   4,B   1,B   5)     80.62 -0.000571   -0.26     80.36   
   105. D(B   9,B   4,B   3,B   1)   -149.59 -0.003837    0.34   -149.25   
   106. D(B   7,B   4,B   3,B   5)    -93.32 -0.010778    0.35    -92.97   
   107. D(B   6,B   4,B   1,B   5)    -22.29  0.007860   -0.56    -22.84   
   108. D(B   6,B   4,B   3,B   5)   -129.00  0.009356   -0.76   -129.76   
   109. D(B   6,B   4,B   3,B  11)    -45.57  0.007828   -0.58    -46.14   
   110. D(B   6,B   4,B   1,B   3)      9.60  0.004136   -0.19      9.41   
   111. D(B   6,B   4,B   3,B   1)   -175.89 -0.001347    0.14   -175.75   
   112. D(B   9,B   4,B   1,B   5)      0.39  0.002614   -0.19      0.20   
   113. D(B   7,B   4,B   3,B  11)     -9.88 -0.012306    0.53     -9.35   
   114. D(B  11,B   5,B   1,B   3)    -45.71  0.002829   -0.20    -45.91   
   115. D(B   3,B   5,B   0,B   8)     -5.95  0.006585   -0.63     -6.58   
   116. D(B   3,B   5,B   0,B   2)     43.70  0.009813   -1.03     42.67   
   117. D(B   1,B   5,B   0,B   8)     70.60  0.006583   -0.69     69.92   
   118. D(B   3,B   5,B   0,B  10)    -40.76  0.001258   -0.01    -40.77   
   119. D(B   1,B   5,B   0,B  10)     35.80  0.001256   -0.07     35.73   
   120. D(B   1,B   5,B   0,B   2)    120.25  0.009811   -1.08    119.17   
   121. D(B   3,B   5,B   1,B   4)     49.21  0.000803   -0.06     49.14   
   122. D(B  11,B   5,B   1,B   4)      3.50  0.003633   -0.27      3.23   
   123. D(B   0,B   5,B   3,B  11)    -49.62 -0.006189    0.67    -48.95   
   124. D(B   0,B   5,B   3,B   1)     92.92  0.000480    0.01     92.93   
   125. D(B  11,B   5,B   3,B   1)    142.54  0.006669   -0.66    141.88   
   126. D(B   1,B   5,B   3,B   4)    -45.96 -0.007572    0.63    -45.33   
   127. D(B  11,B   5,B   3,B   4)     96.58 -0.000903   -0.04     96.54   
   128. D(B   1,B   5,B   3,B  11)   -142.54 -0.006669    0.66   -141.88   
   129. D(B   0,B   5,B   1,B   4)    -74.63  0.001877   -0.05    -74.68   
   130. D(B   0,B   5,B   1,B   3)   -123.84  0.001073    0.01   -123.83   
   131. D(B   9,B   6,B   4,B   3)     35.75 -0.008507    0.66     36.42   
   132. D(B   9,B   6,B   4,B   1)     28.81 -0.013262    0.94     29.75   
   133. D(B   9,B   6,B   4,B   7)   -108.04  0.000428   -0.09   -108.13   
   134. D(B   7,B   6,B   4,B   3)    143.79 -0.008935    0.75    144.54   
   135. D(B   7,B   6,B   4,B   1)    136.85 -0.013691    1.02    137.88   
   136. D(B   7,B   6,B   4,B   9)    108.04 -0.000428    0.09    108.13   
   137. D(B   4,B   7,B   6,B   9)     76.01 -0.003413    0.28     76.30   
   138. D(B   8,B   7,B   6,B   4)    -80.17 -0.000223    0.09    -80.08   
   139. D(B  10,B   7,B   4,B   1)     -7.06  0.005204   -0.29     -7.36   
   140. D(B  10,B   7,B   6,B   9)     27.11  0.004073   -0.39     26.72   
   141. D(B  10,B   7,B   4,B   3)     73.64  0.020262   -1.36     72.27   
   142. D(B   8,B   7,B   6,B   9)     -4.16 -0.003636    0.38     -3.78   
   143. D(B  10,B   7,B   4,B   9)     83.70  0.002288   -0.45     83.25   
   144. D(B  10,B   7,B   4,B   6)    134.21  0.017199   -1.47    132.74   
   145. D(B   6,B   7,B   4,B   3)    -60.57  0.003063    0.11    -60.47   
   146. D(B  10,B   7,B   6,B   4)    -48.90  0.007486   -0.68    -49.58   
   147. D(B   6,B   7,B   4,B   9)    -50.51 -0.014911    1.02    -49.49   
   148. D(B   6,B   7,B   4,B   1)   -141.28 -0.011995    1.18   -140.10   
   149. D(B   9,B   8,B   0,B  10)     95.57 -0.003270    0.13     95.70   
   150. D(B   2,B   8,B   0,B  10)    175.39  0.001357   -0.27    175.12   
   151. D(B  10,B   8,B   0,B   5)    -80.68 -0.000125    0.14    -80.54   
   152. D(B  10,B   8,B   0,B   2)   -175.39 -0.001357    0.27   -175.12   
   153. D(B   9,B   8,B   0,B   2)    -79.82 -0.004627    0.40    -79.42   
   154. D(B   2,B   8,B   0,B   5)     94.71  0.001232   -0.13     94.58   
   155. D(B   0,B   8,B   7,B  10)    -39.83 -0.008743    0.65    -39.18   
   156. D(B   0,B   8,B   7,B   6)     90.58 -0.003288    0.27     90.85   
   157. D(B   2,B   8,B   7,B  10)   -114.39 -0.002332    0.18   -114.21   
   158. D(B   2,B   8,B   7,B   6)     16.02  0.003123   -0.20     15.82   
   159. D(B  10,B   8,B   7,B   4)     61.20 -0.006115    0.26     61.46   
   160. D(B  10,B   8,B   7,B   6)    130.41  0.005455   -0.38    130.03   
   161. D(B   7,B   8,B   2,B   0)     98.08 -0.004136    0.46     98.55   
   162. D(B   9,B   8,B   2,B  11)     31.40 -0.002093    0.22     31.62   
   163. D(B   9,B   8,B   2,B   0)    107.70 -0.006470    0.70    108.40   
   164. D(B   0,B   8,B   2,B  11)    -76.31  0.004377   -0.48    -76.78   
   165. D(B   2,B   8,B   7,B   4)    -53.19 -0.008446    0.44    -52.75   
   166. D(B  10,B   8,B   2,B  11)    -71.26  0.002968   -0.19    -71.45   
   167. D(B  10,B   8,B   2,B   0)      5.04 -0.001409    0.29      5.33   
   168. D(B   9,B   8,B   0,B   5)     14.89 -0.003395    0.27     15.16   
   169. D(B  11,B   9,B   8,B   0)     30.91  0.001076   -0.06     30.84   
   170. D(B  11,B   9,B   8,B  10)     98.35 -0.000238    0.07     98.42   
   171. D(B   6,B   9,B   8,B   7)     -2.68 -0.000593    0.13     -2.56   
   172. D(B   6,B   9,B   8,B   0)   -118.54  0.002001   -0.04   -118.58   
   173. D(B   6,B   9,B   8,B  10)    -51.10  0.000687    0.09    -51.01   
   174. D(B   4,B   9,B   6,B   7)    -70.36 -0.010711    0.72    -69.64   
   175. D(B  11,B   9,B   6,B   4)    -28.26  0.018287   -1.25    -29.52   
   176. D(B  11,B   9,B   6,B   7)    -98.62  0.007576   -0.53    -99.15   
   177. D(B   8,B   9,B   6,B   4)     75.83  0.015274   -1.18     74.65   
   178. D(B   8,B   9,B   6,B   7)      5.47  0.004563   -0.46      5.01   
   179. D(B   8,B   9,B   4,B   3)    100.84  0.002922   -0.36    100.48   
   180. D(B   8,B   9,B   4,B   1)     80.48  0.001905   -0.30     80.18   
   181. D(B   6,B   9,B   8,B   2)   -175.27 -0.000184    0.19   -175.08   
   182. D(B   8,B   9,B   4,B   7)    -73.04 -0.007527    0.15    -72.89   
   183. D(B   8,B   9,B   4,B   6)   -110.86  0.016470   -1.33   -112.19   
   184. D(B   6,B   9,B   4,B   3)   -148.30 -0.013548    0.97   -147.33   
   185. D(B  11,B   9,B   8,B   2)    -25.82 -0.001109    0.16    -25.66   
   186. D(B   6,B   9,B   4,B   1)   -168.66 -0.014565    1.04   -167.63   
   187. D(B   6,B   9,B   4,B   7)     37.82 -0.023997    1.49     39.30   
   188. D(B   7,B  10,B   8,B   9)     40.98 -0.007162    0.32     41.30   
   189. D(B   7,B  10,B   8,B   2)    137.47 -0.009136    0.56    138.02   
   190. D(B   0,B  10,B   8,B   7)   -142.17  0.010403   -0.82   -142.99   
   191. D(B   0,B  10,B   8,B   9)   -101.19  0.003241   -0.50   -101.69   
   192. D(B   0,B  10,B   7,B   4)    -50.27 -0.010306    0.90    -49.37   
   193. D(B   0,B  10,B   7,B   8)     59.37 -0.004263    0.64     60.02   
   194. D(B   0,B  10,B   7,B   6)     -0.06 -0.011472    1.27      1.22   
   195. D(B   8,B  10,B   7,B   4)   -109.65 -0.006042    0.26   -109.39   
   196. D(B   8,B  10,B   7,B   6)    -59.43 -0.007209    0.63    -58.80   
   197. D(B   0,B  10,B   8,B   2)     -4.70  0.001267   -0.26     -4.96   
   198. D(B   7,B  10,B   0,B   5)     41.81  0.006889   -0.75     41.05   
   199. D(B   7,B  10,B   0,B   8)    -58.77  0.004492   -0.63    -59.41   
   200. D(B   7,B  10,B   0,B   2)    -55.26  0.003557   -0.44    -55.70   
   201. D(B   7,B  10,B   8,B   0)    142.17 -0.010403    0.82    142.99   
   202. D(B   8,B  10,B   0,B   5)    100.58  0.002397   -0.12    100.46   
   203. D(B   8,B  10,B   0,B   2)      3.51 -0.000935    0.19      3.70   
   204. D(B   2,B  11,B   5,B   0)      6.11 -0.004386    0.45      6.56   
   205. D(B   2,B  11,B   5,B   3)   -133.63  0.000430   -0.00   -133.63   
   206. D(B   2,B  11,B   5,B   1)    -87.35 -0.003573    0.30    -87.05   
   207. D(B   9,B  11,B   3,B   5)    126.62 -0.002977    0.22    126.84   
   208. D(B   9,B  11,B   3,B   1)     80.19 -0.004817    0.24     80.43   
   209. D(B   2,B  11,B   3,B   4)    -48.93 -0.001818    0.13    -48.80   
   210. D(B   2,B  11,B   3,B   5)     60.91 -0.000038    0.04     60.95   
   211. D(B   2,B  11,B   3,B   1)     14.48 -0.001878    0.06     14.54   
   212. D(B   5,B  11,B   2,B   0)     -6.01  0.004201   -0.43     -6.43   
   213. D(B   9,B  11,B   3,B   4)     16.78 -0.004757    0.31     17.09   
   214. D(B   3,B  11,B   2,B   8)     38.02  0.001631   -0.07     37.95   
   215. D(B   3,B  11,B   2,B   0)    -33.53  0.005250   -0.52    -34.05   
   216. D(B   9,B  11,B   2,B   8)    -25.85  0.002498   -0.14    -25.99   
   217. D(B   9,B  11,B   5,B   1)     -5.28 -0.007226    0.53     -4.75   
   218. D(B   9,B  11,B   2,B   0)    -97.40  0.006117   -0.59    -97.99   
   219. D(B   3,B  11,B   9,B   8)   -107.27 -0.001248    0.07   -107.20   
   220. D(B   3,B  11,B   9,B   6)      2.68 -0.008294    0.53      3.21   
   221. D(B   2,B  11,B   9,B   4)    115.59  0.006880   -0.50    115.09   
   222. D(B   2,B  11,B   9,B   8)     27.61 -0.000570    0.02     27.63   
   223. D(B   2,B  11,B   9,B   6)    137.56 -0.007616    0.47    138.04   
   224. D(B   9,B  11,B   5,B   0)     88.18 -0.008038    0.67     88.85   
   225. D(B   3,B  11,B   9,B   4)    -19.29  0.006202   -0.45    -19.74   
   226. D(B   9,B  11,B   5,B   3)    -51.56 -0.003222    0.22    -51.34   
    ----------------------------------------------------------------------------

Geometry step timings:
Preparation and reading OPT file:      0.000 s ( 0.173 %)
Internal coordinates            :      0.000 s ( 0.335 %)
B/P matrices and projection     :      0.003 s (14.891 %)
Hessian update/contruction      :      0.003 s (19.622 %)
Making the step                 :      0.009 s (51.255 %)
Converting the step to Cartesian:      0.000 s ( 2.562 %)
Storing new data                :      0.000 s ( 0.525 %)
Checking convergence            :      0.000 s ( 0.588 %)
Final printing                  :      0.002 s (10.044 %)
Total time                      :      0.017 s

Time for energy+gradient        :      0.097 s
Time for complete geometry iter :      0.117 s

         *************************************************************
         *                GEOMETRY OPTIMIZATION CYCLE   2            *
         *************************************************************
---------------------------------
CARTESIAN COORDINATES (ANGSTROEM)
---------------------------------
  B    -2.115553   -1.356055    1.703763
  B     1.349186   -2.541475    0.328736
  B    -3.206997    0.798300   -0.087035
  B     0.428441   -2.037142   -1.357830
  B     2.126936    0.143284   -0.025460
  B    -0.399483   -2.705462   -0.386432
  B     2.098519    2.060238   -0.899987
  B     2.186026    2.233300    0.461023
  B    -0.974334    1.762898    1.030511
  B     0.198358    1.570985   -1.219269
  B     0.212063    0.696939    2.172893
  B    -1.903164   -0.625809   -1.720914

----------------------------
CARTESIAN COORDINATES (A.U.)
----------------------------
  NO LB    ZA    FRAG    MASS        X           Y           Z
   0 B   5.0000    0    10.810   -3.997816   -2.562573    3.219646
   1 B   5.0000    0    10.810    2.549593   -4.802692    0.621222
   2 B   5.0000    0    10.810   -6.060345    1.508569   -0.164473
   3 B   5.0000    0    10.810    0.809635   -3.849641   -2.565927
   4 B   5.0000    0    10.810    4.019327    0.270768   -0.048112
   5 B   5.0000    0    10.810   -0.754913   -5.112582   -0.730250
   6 B   5.0000    0    10.810    3.965626    3.893285   -1.700730
   7 B   5.0000    0    10.810    4.130991    4.220326    0.871208
   8 B   5.0000    0    10.810   -1.841224    3.331394    1.947384
   9 B   5.0000    0    10.810    0.374842    2.968732   -2.304084
  10 B   5.0000    0    10.810    0.400741    1.317023    4.106173
  11 B   5.0000    0    10.810   -3.596458   -1.182608   -3.252056

      -----------------------------------------------------------      
     |                   =====================                   |     
     |                           x T B                           |     
     |                   =====================                   |     
     |                         S. Grimme                         |     
     |          Mulliken Center for Theoretical Chemistry        |     
     |                    University of Bonn                     |     
      -----------------------------------------------------------      

   * xtb version 6.6.1 (unknown) compiled by 'builduser@buildhost' on 2023-08-07

   xtb is free software: you can redistribute it and/or modify it under
   the terms of the GNU Lesser General Public License as published by
   the Free Software Foundation, either version 3 of the License, or
   (at your option) any later version.
   
   xtb is distributed in the hope that it will be useful,
   but WITHOUT ANY WARRANTY; without even the implied warranty of
   MERCHANTABILITY or FITNESS FOR A PARTICULAR PURPOSE.  See the
   GNU Lesser General Public License for more details.
   
   Cite this work as:
   * C. Bannwarth, E. Caldeweyher, S. Ehlert, A. Hansen, P. Pracht,
     J. Seibert, S. Spicher, S. Grimme, WIREs Comput. Mol. Sci., 2020, 11,
     e01493. DOI: 10.1002/wcms.1493
   
   for GFN2-xTB:
   * C. Bannwarth, S. Ehlert and S. Grimme., J. Chem. Theory Comput., 2019,
     15, 1652-1671. DOI: 10.1021/acs.jctc.8b01176
   for GFN1-xTB:
   * S. Grimme, C. Bannwarth, P. Shushkov, J. Chem. Theory Comput., 2017,
     13, 1989-2009. DOI: 10.1021/acs.jctc.7b00118
   for GFN0-xTB:
   * P. Pracht, E. Caldeweyher, S. Ehlert, S. Grimme, ChemRxiv, 2019, preprint.
     DOI: 10.26434/chemrxiv.8326202.v1
   for GFN-FF:
   * S. Spicher and S. Grimme, Angew. Chem. Int. Ed., 2020, 59, 15665-15673.
     DOI: 10.1002/anie.202004239
   
   for ALPB and GBSA implicit solvation:
   * S. Ehlert, M. Stahn, S. Spicher, S. Grimme, J. Chem. Theory Comput.,
     2021, 17, 4250-4261. DOI: 10.1021/acs.jctc.1c00471
   
   for DFT-D4:
   * E. Caldeweyher, C. Bannwarth and S. Grimme, J. Chem. Phys., 2017,
     147, 034112. DOI: 10.1063/1.4993215
   * E. Caldeweyher, S. Ehlert, A. Hansen, H. Neugebauer, S. Spicher,
     C. Bannwarth and S. Grimme, J. Chem. Phys., 2019, 150, 154122.
     DOI: 10.1063/1.5090222
   * E. Caldeweyher, J.-M. Mewes, S. Ehlert and S. Grimme, Phys. Chem. Chem. Phys.
     2020, 22, 8499-8512. DOI: 10.1039/D0CP00502A
   
   for sTDA-xTB:
   * S. Grimme and C. Bannwarth, J. Chem. Phys., 2016, 145, 054103.
     DOI: 10.1063/1.4959605
   
   in the mass-spec context:
   * V. Asgeirsson, C. Bauer and S. Grimme, Chem. Sci., 2017, 8, 4879.
     DOI: 10.1039/c7sc00601b
   * J. Koopman and S. Grimme, ACS Omega 2019, 4, 12, 15120-15133.
     DOI: 10.1021/acsomega.9b02011
   
   for metadynamics refer to:
   * S. Grimme, J. Chem. Theory Comput., 2019, 155, 2847-2862
     DOI: 10.1021/acs.jctc.9b00143
   
   for SPH calculations refer to:
   * S. Spicher and S. Grimme, J. Chem. Theory Comput., 2021, 17, 1701-1714
     DOI: 10.1021/acs.jctc.0c01306
   
   with help from (in alphabetical order)
   P. Atkinson, C. Bannwarth, F. Bohle, G. Brandenburg, E. Caldeweyher
   M. Checinski, S. Dohm, S. Ehlert, S. Ehrlich, I. Gerasimov, C. Hölzer
   A. Katbashev, J. Koopman, C. Lavigne, S. Lehtola, F. März, M. Müller,
   F. Musil, H. Neugebauer, J. Pisarek, C. Plett, P. Pracht, F. Pultar,
   J. Seibert, P. Shushkov, S. Spicher, M. Stahn, M. Steiner, T. Strunk,
   J. Stückrath, T. Rose, and J. Unsleber
   
 * started run on 2026/04/17 at 12:14:10.929     

           -------------------------------------------------
          |                Calculation Setup                |
           -------------------------------------------------

          program call               : /usr/bin/xtb random_d1.90_002_m1_XTB.xyz --grad -c 0 -u 0 -P 1 --namespace random_d1.90_002_m1 --input random_d1.90_002_m1_XTB.input.tmp --acc 0.200000
          calculation namespace      : random_d1.90_002_m1
          coordinate file            : random_d1.90_002_m1_XTB.xyz
          omp threads                :                     1

   ID    Z sym.   atoms
    1    5 B      1-12

molecular fragmentation (1/2 indicates fragments):
122222222222
# atoms in fragment 1/2:     1    11
 fragment masses (1/2) :       10.81      118.92
CMA distance (Bohr)    :   6.259
constraining FC (au)   :  0.0500

           -------------------------------------------------
          |                 G F N 2 - x T B                 |
           -------------------------------------------------

        Reference                      10.1021/acs.jctc.8b01176
      * Hamiltonian:
        H0-scaling (s, p, d)           1.850000    2.230000    2.230000
        zeta-weighting                 0.500000
      * Dispersion:
        s8                             2.700000
        a1                             0.520000
        a2                             5.000000
        s9                             5.000000
      * Repulsion:
        kExp                           1.500000    1.000000
        rExp                           1.000000
      * Coulomb:
        alpha                          2.000000
        third order                    shell-resolved
        anisotropic                    true
        a3                             3.000000
        a5                             4.000000
        cn-shift                       1.200000
        cn-exp                         4.000000
        max-rad                        5.000000

q/qsh data taken from xtbrestart
CAMM data taken from xtbrestart

          ...................................................
          :                      SETUP                      :
          :.................................................:
          :  # basis functions                  48          :
          :  # atomic orbitals                  48          :
[...]
    40. A(B   5,B   3,B  11)          109.21 -0.000083   -0.05    109.16   
    41. A(B   1,B   3,B  11)          149.45 -0.000360    1.68    151.13   
    42. A(B   1,B   4,B   9)           80.49  0.000254   -0.52     79.97   
    43. A(B   1,B   4,B   7)          153.48  0.000051   -1.08    152.40   
    44. A(B   1,B   4,B   6)          107.56  0.000101   -0.62    106.94   
    45. A(B   1,B   4,B   3)           44.02 -0.000134   -0.47     43.55   
    46. A(B   7,B   4,B   9)           77.53 -0.000322   -0.30     77.23   
    47. A(B   6,B   4,B   9)           27.12 -0.000148   -0.15     26.97   
    48. A(B   3,B   4,B   6)           63.55  0.000236   -0.18     63.36   
    49. A(B   6,B   4,B   7)           51.08 -0.000216   -0.41     50.67   
    50. A(B   3,B   4,B   7)          112.57  0.000106   -0.57    112.00   
    51. A(B   3,B   4,B   9)           36.48  0.000386   -0.12     36.36   
    52. A(B   0,B   5,B  11)           28.59 -0.000166    0.25     28.84   
    53. A(B   0,B   5,B   1)          118.22  0.000113   -0.23    117.99   
    54. A(B   3,B   5,B  11)           35.96  0.000296   -0.25     35.71   
    55. A(B   1,B   5,B  11)           94.93  0.000313   -0.40     94.53   
    56. A(B   1,B   5,B   3)           62.65  0.000188   -0.97     61.68   
    57. A(B   0,B   5,B   3)           64.37  0.000145   -0.19     64.18   
    58. A(B   4,B   6,B   7)           50.46 -0.000038   -0.52     49.94   
    59. A(B   7,B   6,B   9)          162.63  0.000599    0.40    163.03   
    60. A(B   4,B   6,B   9)          117.10  0.000507   -0.09    117.01   
    61. A(B   8,B   7,B  10)           17.34  0.000225    0.02     17.36   
    62. A(B   6,B   7,B   8)           63.37  0.000171   -1.08     62.30   
    63. A(B   6,B   7,B  10)           79.30  0.000423   -1.10     78.19   
    64. A(B   4,B   7,B   8)           91.29  0.000201    1.53     92.81   
    65. A(B   4,B   7,B  10)          101.88  0.000184    3.22    105.10   
    66. A(B   4,B   7,B   6)           78.47  0.000254    0.93     79.39   
    67. A(B   7,B   8,B   9)           63.42 -0.000274    0.19     63.61   
    68. A(B   0,B   8,B   7)           93.65 -0.000563   -0.54     93.11   
    69. A(B   2,B   8,B   7)          114.46 -0.000334   -0.78    113.69   
    70. A(B   7,B   8,B  10)           17.31  0.000221   -0.12     17.19   
    71. A(B   0,B   8,B   2)           27.33  0.000201   -0.66     26.68   
    72. A(B   2,B   8,B  10)          131.12 -0.000143    0.28    131.39   
    73. A(B   0,B   8,B  10)          108.08 -0.000415    0.79    108.86   
    74. A(B   0,B   8,B   9)           56.82 -0.000123    0.31     57.13   
    75. A(B   2,B   8,B   9)           59.39 -0.000002    0.18     59.57   
    76. A(B   9,B   8,B  10)           80.05 -0.000049    0.18     80.22   
    77. A(B   6,B   9,B   8)           64.25 -0.000253   -0.58     63.67   
    78. A(B   8,B   9,B  11)           71.97 -0.000033    0.58     72.55   
    79. A(B   6,B   9,B  11)          129.88 -0.000530    0.07    129.96   
    80. A(B   4,B   9,B  11)          106.26 -0.000319   -0.25    106.01   
    81. A(B   4,B   9,B   8)           68.98 -0.000183    0.75     69.73   
    82. A(B   4,B   9,B   6)           35.78 -0.000358    0.24     36.02   
    83. A(B   0,B  10,B   7)          101.58 -0.000694   -1.40    100.18   
    84. A(B   7,B  10,B   8)          145.36 -0.000446    0.10    145.45   
    85. A(B   0,B  10,B   8)           48.14  0.000360   -0.48     47.66   
    86. A(B   3,B  11,B   5)           34.82 -0.000212    0.30     35.12   
    87. A(B   5,B  11,B   9)           96.61  0.000046    0.59     97.20   
    88. A(B   2,B  11,B   5)           77.10  0.000048   -0.06     77.04   
    89. A(B   2,B  11,B   9)          102.88 -0.000137   -0.92    101.97   
    90. A(B   3,B  11,B   9)           65.22  0.000325    0.03     65.24   
    91. A(B   2,B  11,B   3)           98.66  0.000003   -0.43     98.22   
    92. D(B  11,B   2,B   0,B  10)     98.52  0.000287    0.11     98.63   
    93. D(B   8,B   2,B   0,B   5)     -2.58  0.000634    1.64     -0.94   
    94. D(B  11,B   2,B   0,B   5)    111.36  0.000761    1.48    112.84   
    95. D(B  11,B   2,B   0,B   8)    113.94  0.000127   -0.16    113.78   
    96. D(B   8,B   2,B   0,B  10)    -15.41  0.000159    0.27    -15.15   
    97. D(B   5,B   3,B   1,B   4)   -138.33  0.000083    0.75   -137.58   
    98. D(B  11,B   3,B   1,B   4)    -75.33  0.000881   -1.15    -76.48   
    99. D(B   4,B   3,B   1,B   5)    138.33 -0.000083   -0.75    137.58   
   100. D(B  11,B   3,B   1,B   5)     63.00  0.000798   -1.90     61.10   
   101. D(B   7,B   4,B   3,B   1)   -164.65 -0.000175    0.23   -164.42   
   102. D(B   7,B   4,B   1,B   3)     33.19 -0.000379   -0.65     32.54   
   103. D(B   9,B   4,B   1,B   3)     -1.10  0.000088   -0.56     -1.66   
   104. D(B   7,B   4,B   1,B   5)    -26.04 -0.000105   -2.37    -28.42   
   105. D(B   9,B   4,B   3,B   1)    178.17  0.000162   -0.76    177.40   
   106. D(B   7,B   4,B   3,B   5)   -132.29 -0.000037    0.93   -131.37   
   107. D(B   6,B   4,B   1,B   5)    -58.73  0.000430   -1.72    -60.46   
   108. D(B   6,B   4,B   3,B   5)   -147.11  0.000303    0.82   -146.29   
   109. D(B   6,B   4,B   3,B  11)    -36.83  0.000156    0.93    -35.91   
   110. D(B   6,B   4,B   1,B   3)      0.50  0.000156    0.00      0.50   
   111. D(B   6,B   4,B   3,B   1)   -179.47  0.000164    0.12   -179.34   
   112. D(B   9,B   4,B   1,B   5)    -60.34  0.000363   -2.28    -62.62   
   113. D(B   7,B   4,B   3,B  11)    -22.02 -0.000183    1.03    -20.98   
   114. D(B  11,B   5,B   1,B   3)    -16.42 -0.000419    1.26    -15.16   
   115. D(B   3,B   5,B   0,B   8)    -77.45 -0.000437    1.08    -76.37   
   116. D(B   3,B   5,B   0,B   2)    -76.28 -0.000722   -0.76    -77.04   
   117. D(B   1,B   5,B   0,B   8)    -44.14  0.000003    0.00    -44.13   
   118. D(B   3,B   5,B   0,B  10)    -66.89 -0.000362    0.80    -66.09   
   119. D(B   1,B   5,B   0,B  10)    -33.58  0.000078   -0.28    -33.86   
   120. D(B   1,B   5,B   0,B   2)    -42.97 -0.000282   -1.83    -44.81   
   121. D(B   3,B   5,B   1,B   4)     71.66 -0.000033    1.77     73.43   
   122. D(B  11,B   5,B   1,B   4)     55.24 -0.000452    3.03     58.27   
   123. D(B   0,B   5,B   3,B  11)     -4.35  0.000208   -1.39     -5.75   
   124. D(B   0,B   5,B   3,B   1)    146.99 -0.000332    0.84    147.83   
   125. D(B  11,B   5,B   3,B   1)    151.34 -0.000540    2.24    153.58   
   126. D(B   1,B   5,B   3,B   4)    -24.94  0.000005   -0.53    -25.47   
   127. D(B  11,B   5,B   3,B   4)    126.40 -0.000535    1.70    128.10   
   128. D(B   1,B   5,B   3,B  11)   -151.34  0.000540   -2.24   -153.58   
   129. D(B   0,B   5,B   1,B   4)     37.78 -0.000464    2.55     40.34   
   130. D(B   0,B   5,B   1,B   3)    -33.88 -0.000431    0.78    -33.10   
   131. D(B   9,B   6,B   4,B   3)     -3.09 -0.000047   -1.23     -4.31   
   132. D(B   9,B   6,B   4,B   1)     -3.48 -0.000166   -1.22     -4.69   
   133. D(B   9,B   6,B   4,B   7)   -165.42 -0.000414   -1.02   -166.45   
   134. D(B   7,B   6,B   4,B   3)    162.33  0.000367   -0.20    162.13   
   135. D(B   7,B   6,B   4,B   1)    161.95  0.000248   -0.19    161.75   
   136. D(B   7,B   6,B   4,B   9)    165.42  0.000414    1.02    166.45   
   137. D(B   4,B   7,B   6,B   9)     48.64  0.000074   -2.64     46.00   
   138. D(B   8,B   7,B   6,B   4)    -97.35 -0.000050   -1.65    -99.00   
   139. D(B  10,B   7,B   4,B   1)     34.87  0.001076   -1.20     33.67   
   140. D(B  10,B   7,B   6,B   9)    -55.98  0.000054   -6.25    -62.23   
   141. D(B  10,B   7,B   4,B   3)     59.20  0.000772   -1.97     57.23   
   142. D(B   8,B   7,B   6,B   9)    -48.71  0.000024   -4.29    -52.99   
   143. D(B  10,B   7,B   4,B   9)     69.56  0.000680   -1.33     68.23   
   144. D(B  10,B   7,B   4,B   6)     76.31  0.000466   -1.93     74.38   
   145. D(B   6,B   7,B   4,B   3)    -17.11  0.000305   -0.04    -17.15   
   146. D(B  10,B   7,B   6,B   4)   -104.62 -0.000020   -3.61   -108.23   
   147. D(B   6,B   7,B   4,B   9)     -6.75  0.000214    0.59     -6.15   
   148. D(B   6,B   7,B   4,B   1)    -41.44  0.000610    0.73    -40.71   
   149. D(B   9,B   8,B   0,B  10)     64.49  0.000215    0.07     64.57   
   150. D(B   2,B   8,B   0,B  10)    151.04  0.000336    0.38    151.42   
   151. D(B  10,B   8,B   0,B   5)     27.02  0.000144   -0.70     26.32   
   152. D(B  10,B   8,B   0,B   2)   -151.04 -0.000336   -0.38   -151.42   
   153. D(B   9,B   8,B   0,B   2)    -86.55 -0.000122   -0.30    -86.85   
   154. D(B   2,B   8,B   0,B   5)    178.06  0.000480   -0.33    177.74   
   155. D(B   0,B   8,B   7,B  10)   -147.21  0.000247   -3.65   -150.85   
   156. D(B   0,B   8,B   7,B   6)     57.46 -0.000155    1.59     59.05   
   157. D(B   2,B   8,B   7,B  10)   -165.60  0.000240   -2.67   -168.27   
   158. D(B   2,B   8,B   7,B   6)     39.07 -0.000163    2.57     41.64   
   159. D(B  10,B   8,B   7,B   4)    128.26 -0.000609    5.19    133.44   
   160. D(B  10,B   8,B   7,B   6)   -155.33 -0.000402    5.24   -150.09   
   161. D(B   7,B   8,B   2,B   0)     43.29 -0.000311   -1.53     41.76   
   162. D(B   9,B   8,B   2,B  11)     -0.74  0.000101   -0.58     -1.32   
   163. D(B   9,B   8,B   2,B   0)     76.11 -0.000292    0.48     76.59   
   164. D(B   0,B   8,B   2,B  11)    -76.86  0.000393   -1.05    -77.91   
   165. D(B   2,B   8,B   7,B   4)    -37.34 -0.000369    2.51    -34.83   
   166. D(B  10,B   8,B   2,B  11)    -39.20 -0.000067   -1.60    -40.80   
   167. D(B  10,B   8,B   2,B   0)     37.65 -0.000461   -0.54     37.11   
   168. D(B   9,B   8,B   0,B   5)     91.51  0.000358   -0.63     90.88   
   169. D(B  11,B   9,B   8,B   0)     32.87  0.000153   -0.30     32.57   
   170. D(B  11,B   9,B   8,B  10)    152.28 -0.000284    0.15    152.44   
   171. D(B   6,B   9,B   8,B   7)     -7.71  0.000297   -0.65     -8.35   
   172. D(B   6,B   9,B   8,B   0)   -122.04  0.000758    0.77   -121.28   
   173. D(B   6,B   9,B   8,B  10)     -2.63  0.000321    1.22     -1.41   
   174. D(B   4,B   9,B   6,B   7)    -40.56 -0.000250    2.26    -38.30   
   175. D(B  11,B   9,B   6,B   4)     57.63 -0.000325    1.59     59.22   
   176. D(B  11,B   9,B   6,B   7)     17.07 -0.000576    3.85     20.92   
   177. D(B   8,B   9,B   6,B   4)     89.32  0.000192    2.13     91.45   
   178. D(B   8,B   9,B   6,B   7)     48.76 -0.000058    4.39     53.15   
   179. D(B   8,B   9,B   4,B   3)    100.59  0.000144    0.30    100.89   
   180. D(B   8,B   9,B   4,B   1)    101.88  0.000026    0.76    102.64   
   181. D(B   6,B   9,B   8,B   2)   -154.22  0.000508    1.59   -152.63   
   182. D(B   8,B   9,B   4,B   7)    -63.19 -0.000166    1.28    -61.91   
   183. D(B   8,B   9,B   4,B   6)    -74.76  0.000182    1.98    -72.79   
   184. D(B   6,B   9,B   4,B   3)    175.35 -0.000038   -1.67    173.68   
   185. D(B  11,B   9,B   8,B   2)      0.69 -0.000097    0.52      1.21   
   186. D(B   6,B   9,B   4,B   1)    176.64 -0.000156   -1.21    175.43   
   187. D(B   6,B   9,B   4,B   7)     11.57 -0.000347   -0.70     10.87   
   188. D(B   7,B  10,B   8,B   9)    -15.43  0.000160   -4.10    -19.53   
   189. D(B   7,B  10,B   8,B   2)     17.49  0.000303   -3.16     14.33   
   190. D(B   0,B  10,B   8,B   7)    -34.65 -0.000197    3.72    -30.93   
   191. D(B   0,B  10,B   8,B   9)    -50.08 -0.000036   -0.38    -50.46   
   192. D(B   0,B  10,B   7,B   4)    -27.73 -0.000468    2.17    -25.56   
   193. D(B   0,B  10,B   7,B   8)     25.61  0.000223   -2.42     23.19   
   194. D(B   0,B  10,B   7,B   6)     47.93 -0.000134    2.45     50.37   
   195. D(B   8,B  10,B   7,B   4)    -53.34 -0.000691    4.59    -48.75   
   196. D(B   8,B  10,B   7,B   6)     22.31 -0.000357    4.87     27.18   
   197. D(B   0,B  10,B   8,B   2)    -17.16  0.000106    0.56    -16.61   
   198. D(B   7,B  10,B   0,B   5)     44.53  0.000378   -2.99     41.54   
   199. D(B   7,B  10,B   0,B   8)   -160.74  0.000275   -2.13   -162.87   
   200. D(B   7,B  10,B   0,B   2)   -144.48  0.000078   -2.36   -146.84   
   201. D(B   7,B  10,B   8,B   0)     34.65  0.000197   -3.72     30.93   
   202. D(B   8,B  10,B   0,B   5)   -154.73  0.000103   -0.86   -155.59   
   203. D(B   8,B  10,B   0,B   2)     16.26 -0.000197   -0.23     16.02   
   204. D(B   2,B  11,B   5,B   0)     44.94  0.000139   -0.91     44.02   
   205. D(B   2,B  11,B   5,B   3)   -126.84 -0.000201    1.56   -125.28   
   206. D(B   2,B  11,B   5,B   1)   -101.53  0.000324   -0.76   -102.28   
   207. D(B   9,B  11,B   3,B   5)    152.37 -0.000308    0.51    152.88   
   208. D(B   9,B  11,B   3,B   1)    103.17 -0.000898    1.12    104.29   
   209. D(B   2,B  11,B   3,B   4)    -46.07  0.000034    0.69    -45.38   
   210. D(B   2,B  11,B   3,B   5)     52.10 -0.000179    1.56     53.66   
   211. D(B   2,B  11,B   3,B   1)      2.91 -0.000768    2.16      5.08   
   212. D(B   5,B  11,B   2,B   0)    -21.55  0.000378    0.03    -21.52   
   213. D(B   9,B  11,B   3,B   4)     54.19 -0.000095   -0.36     53.83   
   214. D(B   3,B  11,B   2,B   8)     67.66  0.000153    0.73     68.39   
   215. D(B   3,B  11,B   2,B   0)    -49.09  0.000615   -0.85    -49.94   
   216. D(B   9,B  11,B   2,B   8)      1.25 -0.000173    0.70      1.94   
   217. D(B   9,B  11,B   5,B   1)      0.23  0.000178   -1.77     -1.54   
   218. D(B   9,B  11,B   2,B   0)   -115.50  0.000290   -0.89   -116.39   
   219. D(B   3,B  11,B   9,B   8)    -94.25 -0.000050   -0.73    -94.98   
   220. D(B   3,B  11,B   9,B   6)    -64.41  0.000367   -0.60    -65.01   
   221. D(B   2,B  11,B   9,B   4)     60.25  0.000019    0.99     61.24   
   222. D(B   2,B  11,B   9,B   8)     -0.56  0.000079   -0.38     -0.93   
   223. D(B   2,B  11,B   9,B   6)     29.29  0.000496   -0.26     29.03   
   224. D(B   9,B  11,B   5,B   0)    146.69 -0.000008   -1.92    144.77   
   225. D(B   3,B  11,B   9,B   4)    -33.45 -0.000111    0.65    -32.80   
   226. D(B   9,B  11,B   5,B   3)    -25.08 -0.000348    0.55    -24.53   
    ----------------------------------------------------------------------------

Geometry step timings:
Preparation and reading OPT file:      0.000 s ( 0.271 %)
Internal coordinates            :      0.000 s ( 0.460 %)
B/P matrices and projection     :      0.003 s (27.335 %)
Hessian update/contruction      :      0.003 s (21.536 %)
Making the step                 :      0.004 s (34.858 %)
Converting the step to Cartesian:      0.000 s ( 2.152 %)
Storing new data                :      0.000 s ( 0.591 %)
Checking convergence            :      0.000 s ( 0.731 %)
Final printing                  :      0.001 s (12.066 %)
Total time                      :      0.012 s

Time for energy+gradient        :      0.053 s
Time for complete geometry iter :      0.067 s




    ----------------------------------------------------------------------------
                                  WARNING !!!
       The optimization did not converge but reached the maximum number of
       optimization cycles.
       Please check your results very carefully.
    ----------------------------------------------------------------------------



--------------------------------
SUGGESTED CITATIONS FOR THIS RUN
--------------------------------

Below you find a list of papers that are relevant to this ORCA run
We neither can nor want to force you to cite these papers, but we appreciate if you do
You receive ORCA, which is the product of decades of hard work by many enthusiastic individuals, for free
The only thing we kindly ask in return is that you cite our papers,
We deeply appreciate it, if you show your appreciation for ORCA by not just citing the generic ORCA reference.

Please note that relegating all ORCA citations to the supporting information does *not* help us.
SI sections are not indexed - citations you put there will not count into any citation statistics
But we need these citations in order to attract the funding resources that allow us to do what we are doing

Therefore, if you are a happy ORCA user, please consider citing a few of the papers listed below in the main body of your paper

In addition to the list printed below, the program has created the file random_d1.90_002_m1.bibtex that contains the list in bibtex format
You can import this file easily into all common literature databanks and citation aid programs

It goes without saying that in many instances, there are alternative algorithms to achieve similar
results as the ones you have gotten from ORCA. It is, of course, also the case that in some instances
ORCA just re-implements algorithms worked out by others. We are fully aware of that and we are also
fully appreciative of our colleagues work. Hence this citation list should not be read as indicating
that the listed papers, which are focused on our own work, are the only ones worth citing. It simply
meant to make it easier for users to cite ORCA specific papers. It is not a substitute for doing your
own literature research and citing the relevant literature in a scientifically appropriate manner.

List of essential papers. We consider these as the minimum necessary citations

  1. Bannwarth, C.; Ehlert, S.; Grimme, S.
     GFN2-xTB—An Accurate and Broadly Parametrized Self-Consistent Tight-Binding Quantum Chemical Method with Multipole Electrostatics and Density-Dependent Dispersion Contributions
     J. Chem. Theory Comput. 2019 15(3), 1652-1671
     doi.org/10.1021/acs.jctc.8b01176
  2. Neese, F.
     Software update: the ORCA program system, version 6.0
     WIRES Comput. Molec. Sci. 2025 15(1), e70019
     doi.org/10.1002/wcms.70019

List of papers to cite with high priority. The work reported in these papers was absolutely
necessary for this run to complete.
Our perspective: the developers of density functionals and basis sets usually get cited in chemistry papers
Good! But without the algorithms to do something with them, the functionals or basis sets would not do anything.
Hence, in our opinion, the algorithm design and method developments papers are equally worthy of getting cited

  1. Bannwarth, C.; Caldeweyher, E.; Ehlert, S.; Hansen, A.; Pracht, P.; Seibert, J.; Spicher, S.; Grimme, S.
     Extended tight-binding quantum chemistry methods
     WIRES Comput. Molec. Sci. 2020 11(2), e1493
     doi.org/10.1002/wcms.1493

List of suggested additional citations. These are papers that are important in the 'surrounding' of 
of this run, or papers that preceded the highly important papers. If you like your results we are grateful for a citation.

  1. Neese, F.
     The ORCA program system
     WIRES Comput. Molec. Sci. 2012 2(1), 73-78
     doi.org/10.1002/wcms.81
  2. Neese, F.
     Software update: the ORCA program system, version 4.0
     WIRES Comput. Molec. Sci. 2018 8(1), 1-6
     doi.org/10.1002/wcms.1327
  3. Neese, F.; Wennmohs, F.; Becker, U.; Riplinger, C.
     The ORCA quantum chemistry program package
     J. Chem. Phys. 2020 152(22), 224108
     doi.org/10.1063/5.0004608
  4. Neese, F.
     Software update: The ORCA program system—Version 5.0
     WIRES Comput. Molec. Sci. 2022 12(1), e1606
     doi.org/10.1002/wcms.1606

List of optional additional citations

  1. Neese, F.
     Approximate second-order SCF convergence for spin unrestricted wavefunctions
     Chem. Phys. Lett. 2000 325(1-3), 93-98
     doi.org/10.1016/s0009-2614(00)00662-x

Timings for individual modules:

Sum of individual times          ...        3.392 sec (=   0.057 min)
Geometry relaxation              ...        0.887 sec (=   0.015 min)  26.1 %
XTB module                       ...        2.505 sec (=   0.042 min)  73.9 %
                             ****ORCA TERMINATED NORMALLY****
TOTAL RUN TIME: 0 days 0 hours 0 minutes 3 seconds 860 msec
