
                                 *****************
                                 * O   R   C   A *
                                 *****************

                                            #,                                       
                                            ###                                      
                                            ####                                     
                                            #####                                    
                                            ######                                   
                                           ########,                                 
                                     ,,################,,,,,                         
                               ,,#################################,,                 
                          ,,##########################################,,             
                       ,#########################################, ''#####,          
                    ,#############################################,,   '####,        
                  ,##################################################,,,,####,       
                ,###########''''           ''''###############################       
              ,#####''   ,,,,##########,,,,          '''####'''          '####       
            ,##' ,,,,###########################,,,                        '##       
           ' ,,###''''                  '''############,,,                           
         ,,##''                                '''############,,,,        ,,,,,,###''
      ,#''                                            '''#######################'''  
     '                                                          ''''####''''         
             ,#######,   #######,   ,#######,      ##                                
            ,#'     '#,  ##    ##  ,#'     '#,    #''#        ,####,    ,#,          
            ##       ##  ##   ,#'  ##            #'  '#       #'       ,# #          
            ##       ##  #######   ##           ,######,      #####,      #          
            '#,     ,#'  ##    ##  '#,     ,#' ,#      #,     #,   #      #          
             '#######'   ##     ##  '#######'  #'      '#     '####' #    #          



                #########################################################
                #                        -***-                          #
                #          Department of theory and spectroscopy        #
                #                                                       #
                #                      Frank Neese                      #
                #                                                       #
                #     Directorship, Architecture, Infrastructure        #
                #                    SHARK, DRIVERS                     #
                #        Core code/Algorithms in most modules           #
                #                                                       #
                #        Max Planck Institute fuer Kohlenforschung      #
                #                Kaiser Wilhelm Platz 1                 #
                #                 D-45470 Muelheim/Ruhr                 #
                #                      Germany                          #
                #                                                       #
                #                  All rights reserved                  #
                #                        -***-                          #
                #########################################################


                         Program Version 6.1.1  -  RELEASE   -
                                (GIT: $487d211c$)
                          ($2025-11-21 10:33:24 +0100$)
                                                                         
                                  - NO-DMRG VERSION -                    
                                                                         


 With contributions from (in alphabetic order):
[Max-Planck-Institut fuer Kohlenforschung]                               
  Daniel Aravena         : Magnetic Suceptibility                        
  Michael Atanasov       : Ab Initio Ligand Field Theory (pilot matlab implementation)
  Alexander A. Auer      : GIAO ZORA, VPT2 properties, NMR spectrum      
  Ute Becker             : All parallelization in ORCA, NUMFREQ, NUMCALC 
  Giovanni Bistoni       : ED, misc. LED, open-shell LED, HFLD           
  Dmytro Bykov           : pre 5.0 version of the SCF Hessian            
  Marcos Casanova-Páez   : Triplet and SCS-CIS(D). UHF-(DLPNO)-IP/EA/STEOM-CCSD. UHF-CVS-IP/STEOM-CCSD   
  Vijay G. Chilkuri      : MRCI spin determinant printing, contributions to CSF-ICE 
  Pauline Colinet        : FMM embedding                                 
  Dipayan Datta          : RHF DLPNO-CCSD density                        
  Achintya Kumar Dutta   : EOM-CC, STEOM-CC                              
  Nicolas Foglia         : Exact transition moments, OPA infrastructure, MCD improvements    
  Dmitry Ganyushin       : Spin-Orbit,Spin-Spin,Magnetic field MRCI      
  Miquel Garcia-Rates    : C-PCM and meta-GGA Hessian, CCSD/C-PCM, Gaussian charge scheme 
  Tiago L. C. Gouveia    : GS-ROHF, GS-ROCIS                             
  Yang Guo               : DLPNO-NEVPT2, F12-NEVPT2, CIM, IAO-localization        
  Andreas Hansen         : Spin unrestricted coupled pair/coupled cluster methods 
  Ingolf Harden          : AUTO-CI MPn and infrastructure                
  Benjamin Helmich-Paris : MC-RPA, TRAH-(SCF,CASSCF), AVAS, COSX integrals, SCF dyn. polar., MC-PDFT, srDFT 
  Lee Huntington         : MR-EOM, pCC                                   
  Robert Izsak           : Overlap fitted RIJCOSX, COSX-SCS-MP3, EOM     
  Riya Kayal             : Wick's Theorem for AUTO-CI, AUTO-CI UHF-CCSDT 
  Emily Kempfer          : AUTO-CI RHF CISDT and CCSDT, approximate NEVPT4
  Christian Kollmar      : KDIIS, OOCD, Brueckner-CCSD(T), CCSD density, CASPT2, CASPT2-K, improved NEVPT2 
  Axel Koslowski         : Symmetry handling                             
  Simone Kossmann        : meta-GGA functionals, TD-DFT gradient, OOMP2, (MP2 Hessian; deprecated post 5.0) 
  Lucas Lang             : DCDCAS, Hyperfine gauge corrections, ICE-SOC+SSC
  Marvin Lechner         : AUTO-CI (C++ implementation), FIC-MRCC        
  Spencer Leger          : CASSCF response                               
  Dagmar Lenk            : GEPOL surface, SMD, ORCA-2-JSON               
  Dimitrios Liakos       : Extrapolation schemes; Compound Job, Property file
  Dimitrios Manganas     : Further ROCIS development; embedding schemes. LFT, Crystal Embedding 
  Dimitrios Pantazis     : SARC Basis sets                               
  Anastasios Papadopoulos: AUTO-CI, single reference methods and gradients 
  Taras Petrenko         : pre 6.0 DFT Hessian and TD-DFT gradient,  ECA, NRVS 
  Petra Pikulova         : Analytic Raman intensities                    
  Peter Pinski           : DLPNO-MP2, DLPNO-MP2 Gradient                 
  Shashank Vittal Rao    : ES-AILFT, MagRelax                            
  Christoph Reimann      : Effective Core Potentials                     
  Marius Retegan         : Local ZFS, SOC                                
  Christoph Riplinger    : Optimizer, TS searches, QM/MM, DLPNO-CCSD(T), (RO)-DLPNO pert. Triples 
  Michael Roemelt        : Original ROCIS implementation, recursive CI coupling coefficients
  Masaaki Saitow         : Open-shell DLPNO-CCSD energy and density      
  Barbara Sandhoefer     : DKH picture change effects                    
  Yorick L. A. Schmerwitz: GMF and freeze-and-release deltaSCF, NEB S-IDPP initial path                    
  Kantharuban Sivalingam : CASSCF convergence/infrastructure, NEVPT2, NEVPT3, NEVPT4(SD), FIC-MRCI and CEPA variants
  Bernardo de Souza      : ESD, SOC TD-DFT                               
  Georgi L. Stoychev     : AutoAux, RI-MP2 NMR, DLPNO-MP2 response, X2C  
  Van Anh Tran           : RI-MP2 g-tensors                              
  Willem Van den Heuvel  : Paramagnetic NMR                              
  Zikuan Wang            : NOTCH, Electric field optimization            
  Frank Wennmohs         : Technical directorship and infrastructure     
  Hang Xu                : AUTO-CI-Response properties                   
                                                                         
[FACCTs GmbH]                                                            
  Markus Bursch, Nicolas Foglia, Miquel Garcia-Rates, Ingolf Harden, Hagen Neugebauer, Anastasios Papadopoulos, 
  Christoph Riplinger, Bernardo de Souza, Georgi L. Stoychev                                                    
                                                                 
  APM, various basis sets, CI-OPT, improved COSX, DLPNO-Multilevel,           
  DOCKER, DRACO, updates on ESD, Fragmentator, GOAT, IRC, LR-CPCM, L-BFGS, MBIS, meta-GGA TD-DFT gradient, ML-optimized integration grids, 
  MM, NACMEs, nearIR, NEB, NEB-TS, NL-DFT gradient (VV10), 2- and 3-layer-ONIOM, interface openCOSMO-RS, QMMM,   
  Crystal-QMMM, RESP, rigid body optimization, SF, symmetry and pop. for TD-DFT, various functionals, SOLVATOR                                   
                                                                         
[Other institutions]                                                     
  V. Asgeirsson          : NEB                                           
  Christoph Bannwarth    : sTDA-DFT, sTD-DFT, PBEh-3c, B97-3c, D3        
  Giovanni Bistoni       : ETS/NOCV, ADLD/ADEX, COVALED                  
  Martin Brehm           : Molecular dynamics                            
  Ronald Cardenas        : ETS/NOCV                                      
  Martina Colucci        : COVALED                                       
  Sebastian Ehlert       : rSCAN, r2SCAN, r2SCAN-3c, D4, dhf basis sets  
  Marvin Friede          : D4 for Fr, Ra, Ac-Lr                          
  Lars Goerigk           : TD-DFT with DH, B97 family of functionals     
  Stefan Grimme          : VdW corrections, initial TS optimization, DFT functionals, gCP, sTDA/sTD-DF 
  Waldemar Hujo          : DFT-NL                                        
  H. Jonsson             : NEB                                           
  Holger Kruse           : gCP                                           
  Marcel Mueller         : wB97X-3c, vDZP basis set                      
  Hagen Neugebauer       : wr2SCAN, Native XTB                           
  Gianluca Regni         : ADLD/ADEX                                     
  Tobias Risthaus        : pre 6.0 range-separated hybrid DFT and stability analysis
  Lukas Wittmann         : regularized MP2, r2SCAN double-hybrids, wr2SCAN        
                                                                         
We gratefully acknowledge several colleagues who have allowed us to      
interface, adapt or use parts of their codes:                            
  Ed Valeev, F. Pavosevic, A. Kumar             : LibInt (2-el integral package), F12 methods 
  Garnet Chan, S. Sharma, J. Yang, R. Olivares  : DMRG                   
  Ulf Ekstrom                                   : XCFun DFT Library      
  Mihaly Kallay                                 : mrcc  (arbitrary order and MRCC methods)
  Frank Weinhold                                : gennbo (NPA and NBO analysis)           
  Simon Mueller                                 : openCOSMO-RS                            
  Christopher J. Cramer and Donald G. Truhlar   : smd solvation model                     
  S Lehtola, MJT Oliveira, MAL Marques          : LibXC Library                           
  Liviu Ungur et al                             : ANISO software                          


 Your calculation uses the libint2 library for the computation of 2-el integrals
 For citations please refer to: http://libint.valeyev.net

 Your ORCA version has been built with support for libXC version: 7.0.0
 For citations please refer to: https://libxc.gitlab.io

 This ORCA versions uses:
   CBLAS   interface :  Fast vector & matrix operations
   LAPACKE interface :  Fast linear algebra routines
   SCALAPACK package :  Parallel linear algebra routines
   Shared memory     :  Shared parallel matrices
   BLAS/LAPACK       :  OpenBLAS 0.3.29  USE64BITINT DYNAMIC_ARCH NO_AFFINITY Zen SINGLE_THREADED
        Core in use  :  Zen
   Copyright (c) 2011-2014, The OpenBLAS Project


  ***********************************
  * Starting time: Fri Apr 17 12:14:10 2026
  * Host name:     vmi3233575
  * Process ID:    332430
  * Working dir.:  /root/orca_b12_vps_pack/jobs/01_xtb/mult_1
  ***********************************

NOTE: MaxCore=500 MB was set to SCF,MP2,MDCI,CIPSI,MRCI,RASCI and CIS
      => If you want to overwrite this, your respective input block should be placed after the MaxCore statement


***************************************
The coordinates will be read from file: ../../../starts/random_d1.70_009.xyz
***************************************


Your calculation utilizes the semiempirical GFN2-xTB method
Please cite in your paper:
Bannwarth, C.; Ehlert S.; Grimme, S. J. Chem. Theory Comput. 2019, 15, 1652.
   

================================================================================

================================================================================
                                        WARNINGS
                       Please study these warnings very carefully!
================================================================================


WARNING: Geometry Optimization
  ===> : Switching off AutoStart
         For restart on a previous wavefunction, please use MOREAD

WARNING: Found dipole moment calculation with XTB calculation
  ===> : Switching off dipole moment calculation

Environment variable XTBEXE for xtb has been set!

================================================================================
                                       INPUT FILE
================================================================================
NAME = random_d1.70_009_m1.inp
|  1> ! GFN2-xTB TightSCF TightOpt
|  2> 
|  3> %pal
|  4>   nprocs 1
|  5> end
|  6> 
|  7> %maxcore 500
|  8> 
|  9> * xyzfile 0 1 ../../../starts/random_d1.70_009.xyz
| 10> 
| 11>                          ****END OF INPUT****
================================================================================

                       *****************************
                       * Geometry Optimization Run *
                       *****************************

Geometry optimization settings:
Update method            Update   .... BFGS
Choice of coordinates    CoordSys .... (2022) Redundant Internals
Initial Hessian          InHess   .... Almloef's Model
Max. no of cycles        MaxIter  .... 50

Convergence Tolerances:
Energy Change            TolE     ....  1.0000e-06 Eh
Max. Gradient            TolMAXG  ....  1.0000e-04 Eh/bohr
RMS Gradient             TolRMSG  ....  3.0000e-05 Eh/bohr
Max. Displacement        TolMAXD  ....  1.0000e-03 bohr
RMS Displacement         TolRMSD  ....  6.0000e-04 bohr
Strict Convergence                .... False

------------------------------------------------------------------------------
                        ORCA OPTIMIZATION COORDINATE SETUP
------------------------------------------------------------------------------

The optimization will be done in redundant internal coordinates (2022)
Making redundant internal coordinates   ...  (2022 redundants) done
Evaluating the initial hessian          ...  (Almloef) done
Evaluating the coordinates              ...  done
Calculating the B-matrix                .... done
Calculating the G-matrix                .... done
The number of degrees of freedom        ....  243

    -----------------------------------------------------------------
                    Redundant Internal Coordinates


    -----------------------------------------------------------------
         Definition                    Initial Value    Approx d2E/dq
    -----------------------------------------------------------------
      1. B(B   1,B   0)                  2.0236         0.081757   
      2. B(B   2,B   1)                  1.6698         0.299940   
      3. B(B   2,B   0)                  1.2774         1.267617   
      4. B(B   6,B   5)                  2.5531         0.011687   
      5. B(B   6,B   4)                  2.7635         0.010000   
      6. B(B   7,B   2)                  3.0854         0.010000   
      7. B(B   7,B   1)                  3.0156         0.010000   
      8. B(B   7,B   0)                  2.7500         0.010000   
      9. B(B   7,B   4)                  3.2566         0.010000   
     10. B(B   8,B   2)                  1.6999         0.268531   
     11. B(B   8,B   7)                  2.5699         0.010987   
     12. B(B   8,B   1)                  1.6120         0.370838   
     13. B(B   9,B   6)                  2.3146         0.028064   
     14. B(B   9,B   4)                  1.9122         0.123095   
     15. B(B   9,B   1)                  1.6422         0.331888   
     16. B(B   9,B   5)                  1.5326         0.496500   
     17. B(B  10,B   9)                  1.7708         0.206938   
     18. B(B  10,B   5)                  2.0494         0.074359   
     19. B(B  10,B   6)                  2.8580         0.010000   
     20. B(B  11,B   8)                  1.2321         1.497015   
     21. B(B  11,B   3)                  1.6866         0.281926   
     22. B(B  11,B   1)                  1.5499         0.465803   
     23. B(B  11,B   7)                  2.5403         0.012248   
     24. A(B   1,B   0,B   2)           55.3610         0.356627   
     25. A(B   1,B   0,B   7)           76.6830         0.167663   
     26. A(B   2,B   0,B   7)           92.6532         0.235290   
     27. A(B   8,B   1,B  11)           45.8168         0.389433   
     28. A(B   7,B   1,B   9)          104.2514         0.175613   
     29. A(B   8,B   1,B   9)          162.6959         0.367246   
     30. A(B   0,B   1,B   9)           83.9300         0.286607   
     31. A(B   2,B   1,B   7)           76.4331         0.173651   
     32. A(B   0,B   1,B   8)           87.2733         0.291633   
     33. A(B   2,B   1,B   8)           62.3637         0.360944   
     34. A(B   2,B   1,B   9)          116.5389         0.354199   
     35. A(B   0,B   1,B   2)           39.0081         0.282132   
     36. A(B   2,B   1,B  11)          106.7036         0.375346   
     37. A(B   0,B   1,B  11)          116.8322         0.302364   
     38. A(B   9,B   1,B  11)          127.1264         0.381982   
     39. A(B   7,B   1,B   8)           58.4447         0.177815   
     40. A(B   7,B   1,B  11)           57.3536         0.182519   
     41. A(B   0,B   1,B   7)           62.5491         0.152076   
     42. A(B   0,B   2,B   7)           62.9169         0.199691   
     43. A(B   1,B   2,B   8)           57.1524         0.341784   
     44. A(B   0,B   2,B   1)           85.6309         0.448170   
     45. A(B   0,B   2,B   8)          115.3842         0.439289   
     46. A(B   1,B   2,B   7)           71.8256         0.168879   
     47. A(B   7,B   2,B   8)           56.4011         0.166904   
     48. A(B   6,B   4,B   9)           55.8306         0.174334   
     49. A(B   7,B   4,B   9)           89.8479         0.145631   
     50. A(B   6,B   4,B   7)          118.8694         0.116903   
     51. A(B   9,B   5,B  10)           57.0885         0.300871   
     52. A(B   6,B   5,B  10)           75.8952         0.179687   
     53. A(B   6,B   5,B   9)           63.3546         0.228374   
     54. A(B   4,B   6,B   9)           43.1195         0.150065   
     55. A(B   4,B   6,B  10)           44.1548         0.127867   
     56. A(B   5,B   6,B  10)           44.0636         0.135297   
     57. A(B   9,B   6,B  10)           38.2506         0.145450   
     58. A(B   4,B   6,B   5)           75.4750         0.139082   
     59. A(B   5,B   6,B   9)           36.2848         0.161739   
     60. A(B   0,B   7,B   1)           40.7679         0.123478   
     61. A(B   1,B   7,B  11)           30.9132         0.130045   
     62. A(B   1,B   7,B   8)           32.3106         0.129048   
     63. A(B   4,B   7,B   8)           84.4064         0.121775   
     64. A(B   0,B   7,B   8)           56.5850         0.138944   
     65. A(B   0,B   7,B  11)           70.3986         0.140188   
     66. A(B   8,B   7,B  11)           27.8965         0.148456   
     67. A(B   2,B   7,B   4)           62.3243         0.110351   
     68. A(B   0,B   7,B   4)           42.2937         0.117217   
     69. A(B   4,B   7,B  11)           79.6683         0.122591   
     70. A(B   1,B   7,B   4)           53.3670         0.111626   
     71. A(B   0,B   7,B   2)           24.4299         0.121535   
     72. A(B   1,B   7,B   2)           31.7413         0.115088   
     73. A(B   2,B   7,B   8)           33.4317         0.126790   
     74. A(B   2,B   7,B  11)           53.6343         0.127731   
     75. A(B   2,B   8,B  11)          122.8191         0.452728   
     76. A(B   1,B   8,B  11)           64.4322         0.480297   
     77. A(B   7,B   8,B  11)           74.7168         0.265440   
     78. A(B   2,B   8,B   7)           90.1673         0.208590   
     79. A(B   1,B   8,B   7)           89.2448         0.217655   
     80. A(B   1,B   8,B   2)           60.4839         0.354220   
     81. A(B   5,B   9,B   6)           80.3607         0.258938   
     82. A(B   4,B   9,B   6)           81.0499         0.212938   
     83. A(B   1,B   9,B   6)          149.7311         0.244131   
     84. A(B   4,B   9,B   5)          141.8783         0.326476   
     85. A(B   1,B   9,B   5)          107.8137         0.386245   
     86. A(B   1,B   9,B   4)          105.0076         0.305784   
     87. A(B   5,B   9,B  10)           76.3118         0.356104   
     88. A(B   4,B   9,B  10)           69.9640         0.283802   
     89. A(B   6,B   9,B  10)           87.7273         0.228401   
     90. A(B   1,B   9,B  10)          122.3877         0.332831   
     91. A(B   6,B  10,B   9)           54.0221         0.177727   
     92. A(B   5,B  10,B   6)           60.0413         0.159379   
     93. A(B   5,B  10,B   9)           46.5996         0.262798   
     94. A(B   3,B  11,B   8)          152.1710         0.456758   
     95. A(B   1,B  11,B   8)           69.7509         0.501020   
     96. A(B   1,B  11,B   3)           83.2099         0.371360   
     97. A(B   7,B  11,B   8)           77.3867         0.269833   
     98. A(B   3,B  11,B   7)          110.8745         0.212926   
     99. A(B   1,B  11,B   7)           91.7332         0.227841   
    100. D(B   2,B   1,B   0,B   7)   -102.7881         0.010000   
    101. D(B  11,B   1,B   0,B   7)    -19.2618         0.010000   
    102. D(B   8,B   1,B   0,B   2)     47.2355         0.010000   
    103. D(B  11,B   1,B   0,B   2)     83.5262         0.010000   
    104. D(B   9,B   1,B   0,B   7)    109.5250         0.010000   
    105. D(B   9,B   1,B   0,B   2)   -147.6870         0.010000   
    106. D(B   8,B   1,B   0,B   7)    -55.5526         0.010000   
    107. D(B   0,B   2,B   1,B   9)     36.4523         0.010000   
    108. D(B   8,B   2,B   0,B   7)     21.4742         0.091562   
    109. D(B   0,B   2,B   1,B   8)   -124.1309         0.010000   
    110. D(B   8,B   2,B   0,B   1)    -50.3293         0.091562   
    111. D(B   7,B   2,B   0,B   1)    -71.8036         0.091562   
    112. D(B   8,B   2,B   1,B   9)    160.5832         0.010000   
    113. D(B   8,B   2,B   1,B   0)    124.1309         0.010000   
    114. D(B   0,B   2,B   1,B   7)    -62.9027         0.010000   
    115. D(B   1,B   2,B   0,B   7)     71.8036         0.091562   
    116. D(B   8,B   2,B   1,B   7)     61.2282         0.010000   
    117. D(B   8,B   2,B   1,B  11)     11.9056         0.010000   
    118. D(B   0,B   2,B   1,B  11)   -112.2254         0.010000   
    119. D(B   5,B   6,B   4,B   7)    -87.4774         0.010000   
    120. D(B  10,B   6,B   4,B   9)    -56.6709         0.010000   
    121. D(B   5,B   6,B   4,B   9)    -19.6822         0.010000   
    122. D(B   4,B   6,B   5,B   9)     22.8926         0.010000   
    123. D(B   9,B   6,B   5,B  10)    -59.9522         0.010000   
    124. D(B   4,B   6,B   5,B  10)    -37.0596         0.010000   
    125. D(B  10,B   6,B   5,B   9)     59.9522         0.010000   
    126. D(B  10,B   6,B   4,B   7)   -124.4661         0.010000   
    127. D(B   9,B   6,B   4,B   7)    -67.7952         0.010000   
    128. D(B   8,B   7,B   0,B   1)     38.2430         0.010000   
    129. D(B   1,B   7,B   4,B   9)     15.3526         0.010000   
    130. D(B   0,B   7,B   4,B   9)     69.5388         0.010000   
    131. D(B  11,B   7,B   0,B   2)    -42.4463         0.010000   
    132. D(B   8,B   7,B   4,B   9)     25.1508         0.010000   
    133. D(B   8,B   7,B   4,B   6)     75.1490         0.010000   
    134. D(B   0,B   7,B   2,B   8)   -156.6044         0.010000   
    135. D(B   8,B   7,B   1,B  11)     54.6973         0.010000   
    136. D(B   0,B   7,B   2,B   1)    -94.4629         0.010000   
    137. D(B   8,B   7,B   2,B   0)    156.6044         0.010000   
    138. D(B  11,B   7,B   2,B   8)    -28.7484         0.010000   
    139. D(B   8,B   7,B   2,B   1)     62.1415         0.010000   
    140. D(B   0,B   7,B   1,B   8)    104.8399         0.010000   
    141. D(B   1,B   7,B   2,B   0)     94.4629         0.010000   
    142. D(B   0,B   7,B   1,B   2)     39.1562         0.010000   
    143. D(B  11,B   7,B   4,B   6)     47.3763         0.010000   
    144. D(B  11,B   7,B   2,B   0)    127.8560         0.010000   
    145. D(B  11,B   7,B   2,B   1)     33.3931         0.010000   
    146. D(B   8,B   7,B   1,B   9)    179.9271         0.010000   
    147. D(B   8,B   7,B   1,B   2)    -65.6837         0.010000   
    148. D(B   8,B   7,B   1,B   0)   -104.8399         0.010000   
    149. D(B  11,B   7,B   1,B   8)    -54.6973         0.010000   
    150. D(B  11,B   7,B   1,B   0)   -159.5372         0.010000   
    151. D(B  11,B   7,B   4,B   9)     -2.6218         0.010000   
    152. D(B  11,B   7,B   1,B   2)   -120.3810         0.010000   
    153. D(B   2,B   7,B   0,B   1)     53.4371         0.010000   
    154. D(B  11,B   7,B   1,B   9)    125.2298         0.010000   
    155. D(B   4,B   7,B   0,B   1)    -85.2402         0.010000   
    156. D(B  11,B   7,B   0,B   1)     10.9908         0.010000   
    157. D(B   0,B   7,B   4,B   6)    119.5369         0.010000   
    158. D(B   8,B   7,B   0,B   2)    -15.1941         0.010000   
    159. D(B   1,B   7,B   0,B   2)    -53.4371         0.010000   
    160. D(B   2,B   8,B   1,B  11)   -164.0058         0.010000   
    161. D(B   2,B   8,B   1,B   9)    -90.8573         0.010000   
    162. D(B   2,B   8,B   1,B   0)    -31.4401         0.010000   
    163. D(B   2,B   8,B   7,B   4)     45.6755         0.010000   
    164. D(B   2,B   8,B   7,B   1)     60.4784         0.010000   
    165. D(B   2,B   8,B   7,B   0)     11.3467         0.010000   
    166. D(B   1,B   8,B   7,B   4)    -14.8029         0.010000   
    167. D(B   1,B   8,B   7,B   2)    -60.4784         0.010000   
    168. D(B   1,B   8,B   7,B   0)    -49.1317         0.010000   
    169. D(B   1,B   8,B   7,B  11)     63.6510         0.010000   
    170. D(B   7,B   8,B   2,B   0)    -23.0365         0.010000   
    171. D(B  11,B   8,B   2,B   7)     71.8339         0.010000   
    172. D(B  11,B   8,B   2,B   1)    -17.2035         0.010000   
    173. D(B  11,B   8,B   1,B   9)     73.1484         0.010000   
    174. D(B   1,B   8,B   2,B   0)     66.0009         0.010000   
    175. D(B  11,B   8,B   1,B   7)     73.3860         0.010000   
    176. D(B  11,B   8,B   2,B   0)     48.7974         0.010000   
    177. D(B   2,B   8,B   7,B  11)    124.1294         0.010000   
    178. D(B  11,B   8,B   1,B   2)    164.0058         0.010000   
    179. D(B  11,B   8,B   1,B   0)    132.5657         0.010000   
    180. D(B   2,B   8,B   1,B   7)    -90.6198         0.010000   
    181. D(B   1,B   8,B   2,B   7)     89.0374         0.010000   
    182. D(B   5,B   9,B   6,B  10)    -76.4983         0.010000   
    183. D(B   5,B   9,B   6,B   4)   -146.5693         0.010000   
    184. D(B   4,B   9,B   6,B  10)     70.0710         0.010000   
    185. D(B   1,B   9,B   6,B  10)    174.5605         0.010000   
    186. D(B   1,B   9,B   6,B   4)    104.4896         0.010000   
    187. D(B   1,B   9,B   6,B   5)   -108.9412         0.010000   
    188. D(B  10,B   9,B   5,B   6)    -89.9981         0.013371   
    189. D(B   4,B   9,B   5,B   6)    -61.8319         0.013371   
    190. D(B   4,B   9,B   5,B  10)     28.1662         0.013371   
    191. D(B   1,B   9,B   5,B   6)    149.9487         0.013371   
    192. D(B   1,B   9,B   5,B  10)   -120.0532         0.013371   
    193. D(B  10,B   9,B   4,B   7)   -143.3298         0.010000   
    194. D(B  10,B   9,B   4,B   6)     90.8425         0.010000   
    195. D(B   5,B   9,B   4,B   7)   -172.5501         0.010000   
    196. D(B   5,B   9,B   4,B   6)     61.6221         0.010000   
    197. D(B   1,B   9,B   4,B   7)    -23.8236         0.010000   
    198. D(B   1,B   9,B   4,B   6)   -149.6513         0.010000   
    199. D(B   5,B   9,B   1,B  11)   -113.3080         0.010000   
    200. D(B   5,B   9,B   1,B   8)   -172.7146         0.010000   
    201. D(B   6,B   9,B   5,B  10)     89.9981         0.013371   
    202. D(B   5,B   9,B   1,B   2)    105.3375         0.010000   
    203. D(B   5,B   9,B   1,B   0)    127.4290         0.010000   
    204. D(B   4,B   9,B   1,B   7)     26.7471         0.010000   
    205. D(B   4,B   9,B   6,B   5)    146.5693         0.010000   
    206. D(B   4,B   9,B   1,B  11)     86.3626         0.010000   
    207. D(B   4,B   9,B   1,B   8)     26.9559         0.010000   
    208. D(B   4,B   9,B   1,B   2)    -54.9919         0.010000   
    209. D(B   4,B   9,B   1,B   0)    -32.9005         0.010000   
    210. D(B   6,B  10,B   9,B   5)     80.6300         0.010000   
    211. D(B   6,B  10,B   9,B   4)    -81.3004         0.010000   
    212. D(B   6,B  10,B   9,B   1)   -176.7563         0.010000   
    213. D(B   5,B  10,B   9,B   6)    -80.6300         0.010000   
    214. D(B   5,B  10,B   9,B   4)   -161.9304         0.010000   
    215. D(B   5,B  10,B   9,B   1)    102.6138         0.010000   
    216. D(B   9,B  10,B   6,B   4)     67.2897         0.010000   
    217. D(B   9,B  10,B   6,B   5)    -55.8359         0.010000   
    218. D(B   5,B  10,B   6,B   4)    123.1256         0.010000   
    219. D(B   5,B  10,B   6,B   9)     55.8359         0.010000   
    220. D(B   6,B  10,B   5,B   9)    -67.1587         0.010000   
    221. D(B   9,B  10,B   5,B   6)     67.1587         0.010000   
    222. D(B   3,B  11,B   1,B   7)    110.8180         0.013235   
    223. D(B   3,B  11,B   1,B   9)     27.6123         0.013235   
    224. D(B   3,B  11,B   1,B   8)   -173.3063         0.013235   
    225. D(B   3,B  11,B   1,B   2)    171.9286         0.013235   
    226. D(B   3,B  11,B   1,B   0)    131.1628         0.013235   
    227. D(B   7,B  11,B   8,B   1)    -96.6374         0.144782   
    228. D(B   3,B  11,B   8,B   2)     30.9334         0.144782   
    229. D(B   3,B  11,B   8,B   1)     14.3554         0.144782   
    230. D(B   1,B  11,B   8,B   7)     96.6374         0.144782   
    231. D(B   3,B  11,B   7,B   2)   -117.6986         0.010000   
    232. D(B   3,B  11,B   7,B   1)    -83.3931         0.010000   
    233. D(B   3,B  11,B   7,B   0)    -97.4172         0.010000   
    234. D(B   3,B  11,B   7,B   8)   -152.1949         0.010000   
    235. D(B   1,B  11,B   7,B   4)     28.8180         0.010000   
    236. D(B   1,B  11,B   7,B   2)    -34.3055         0.010000   
    237. D(B   1,B  11,B   8,B   2)     16.5781         0.144782   
    238. D(B   1,B  11,B   7,B   0)    -14.0241         0.010000   
    239. D(B   1,B  11,B   7,B   8)    -68.8018         0.010000   
    240. D(B   8,B  11,B   1,B   9)   -159.0815         0.013235   
    241. D(B   3,B  11,B   8,B   7)    110.9928         0.144782   
    242. D(B   8,B  11,B   1,B   2)    -14.7652         0.013235   
    243. D(B   8,B  11,B   1,B   0)    -55.5310         0.013235   
    -----------------------------------------------------------------

Number of atoms                         .... 12
Number of degrees of freedom            .... 243


         *************************************************************
         *                GEOMETRY OPTIMIZATION CYCLE   1            *
         *************************************************************
---------------------------------
CARTESIAN COORDINATES (ANGSTROEM)
---------------------------------
  B     0.699017    0.836413    1.439887
  B    -0.335775    0.757997   -0.297342
  B     0.092898    1.828399    0.910373
  B    -0.187074   -0.241624   -2.196680
  B     0.892100   -1.350603    1.125956
  B    -2.182176   -0.976197    0.113599
  B    -0.747223   -3.043395   -0.317652
  B     2.672988    0.856633   -0.474677
  B     0.440097    2.102847   -0.730875
  B    -0.662970   -0.782129    0.169351
  B    -1.093872   -1.196914    1.836081
  B     0.411990    1.208573   -1.578021

----------------------------
CARTESIAN COORDINATES (A.U.)
----------------------------
  NO LB    ZA    FRAG    MASS        X           Y           Z
   0 B   5.0000    0    10.810    1.320950    1.580592    2.720992
   1 B   5.0000    0    10.810   -0.634522    1.432406   -0.561896
   2 B   5.0000    0    10.810    0.175552    3.455174    1.720355
   3 B   5.0000    0    10.810   -0.353518   -0.456603   -4.151123
   4 B   5.0000    0    10.810    1.685825   -2.552271    2.127749
   5 B   5.0000    0    10.810   -4.123715   -1.844744    0.214670
   6 B   5.0000    0    10.810   -1.412047   -5.751184   -0.600275
   7 B   5.0000    0    10.810    5.051215    1.618803   -0.897010
   8 B   5.0000    0    10.810    0.831663    3.973805   -1.381153
   9 B   5.0000    0    10.810   -1.252832   -1.478010    0.320027
  10 B   5.0000    0    10.810   -2.067118   -2.261839    3.469691
  11 B   5.0000    0    10.810    0.778548    2.283872   -2.982028

      -----------------------------------------------------------      
     |                   =====================                   |     
     |                           x T B                           |     
     |                   =====================                   |     
     |                         S. Grimme                         |     
     |          Mulliken Center for Theoretical Chemistry        |     
     |                    University of Bonn                     |     
      -----------------------------------------------------------      

   * xtb version 6.6.1 (unknown) compiled by 'builduser@buildhost' on 2023-08-07

   xtb is free software: you can redistribute it and/or modify it under
   the terms of the GNU Lesser General Public License as published by
   the Free Software Foundation, either version 3 of the License, or
   (at your option) any later version.
   
   xtb is distributed in the hope that it will be useful,
   but WITHOUT ANY WARRANTY; without even the implied warranty of
   MERCHANTABILITY or FITNESS FOR A PARTICULAR PURPOSE.  See the
   GNU Lesser General Public License for more details.
   
   Cite this work as:
   * C. Bannwarth, E. Caldeweyher, S. Ehlert, A. Hansen, P. Pracht,
     J. Seibert, S. Spicher, S. Grimme, WIREs Comput. Mol. Sci., 2020, 11,
     e01493. DOI: 10.1002/wcms.1493
   
   for GFN2-xTB:
   * C. Bannwarth, S. Ehlert and S. Grimme., J. Chem. Theory Comput., 2019,
     15, 1652-1671. DOI: 10.1021/acs.jctc.8b01176
   for GFN1-xTB:
   * S. Grimme, C. Bannwarth, P. Shushkov, J. Chem. Theory Comput., 2017,
     13, 1989-2009. DOI: 10.1021/acs.jctc.7b00118
   for GFN0-xTB:
   * P. Pracht, E. Caldeweyher, S. Ehlert, S. Grimme, ChemRxiv, 2019, preprint.
     DOI: 10.26434/chemrxiv.8326202.v1
   for GFN-FF:
   * S. Spicher and S. Grimme, Angew. Chem. Int. Ed., 2020, 59, 15665-15673.
     DOI: 10.1002/anie.202004239
   
   for ALPB and GBSA implicit solvation:
   * S. Ehlert, M. Stahn, S. Spicher, S. Grimme, J. Chem. Theory Comput.,
     2021, 17, 4250-4261. DOI: 10.1021/acs.jctc.1c00471
   
   for DFT-D4:
   * E. Caldeweyher, C. Bannwarth and S. Grimme, J. Chem. Phys., 2017,
     147, 034112. DOI: 10.1063/1.4993215
   * E. Caldeweyher, S. Ehlert, A. Hansen, H. Neugebauer, S. Spicher,
     C. Bannwarth and S. Grimme, J. Chem. Phys., 2019, 150, 154122.
     DOI: 10.1063/1.5090222
   * E. Caldeweyher, J.-M. Mewes, S. Ehlert and S. Grimme, Phys. Chem. Chem. Phys.
     2020, 22, 8499-8512. DOI: 10.1039/D0CP00502A
   
   for sTDA-xTB:
   * S. Grimme and C. Bannwarth, J. Chem. Phys., 2016, 145, 054103.
     DOI: 10.1063/1.4959605
   
   in the mass-spec context:
   * V. Asgeirsson, C. Bauer and S. Grimme, Chem. Sci., 2017, 8, 4879.
     DOI: 10.1039/c7sc00601b
   * J. Koopman and S. Grimme, ACS Omega 2019, 4, 12, 15120-15133.
     DOI: 10.1021/acsomega.9b02011
   
   for metadynamics refer to:
   * S. Grimme, J. Chem. Theory Comput., 2019, 155, 2847-2862
     DOI: 10.1021/acs.jctc.9b00143
   
   for SPH calculations refer to:
   * S. Spicher and S. Grimme, J. Chem. Theory Comput., 2021, 17, 1701-1714
     DOI: 10.1021/acs.jctc.0c01306
   
   with help from (in alphabetical order)
   P. Atkinson, C. Bannwarth, F. Bohle, G. Brandenburg, E. Caldeweyher
   M. Checinski, S. Dohm, S. Ehlert, S. Ehrlich, I. Gerasimov, C. Hölzer
   A. Katbashev, J. Koopman, C. Lavigne, S. Lehtola, F. März, M. Müller,
   F. Musil, H. Neugebauer, J. Pisarek, C. Plett, P. Pracht, F. Pultar,
   J. Seibert, P. Shushkov, S. Spicher, M. Stahn, M. Steiner, T. Strunk,
   J. Stückrath, T. Rose, and J. Unsleber
   
 * started run on 2026/04/17 at 12:14:10.808     

           -------------------------------------------------
          |                Calculation Setup                |
           -------------------------------------------------

          program call               : /usr/bin/xtb random_d1.70_009_m1_XTB.xyz --grad -c 0 -u 0 -P 1 --namespace random_d1.70_009_m1 --input random_d1.70_009_m1_XTB.input.tmp --acc 0.200000
          calculation namespace      : random_d1.70_009_m1
          coordinate file            : random_d1.70_009_m1_XTB.xyz
          omp threads                :                     1

   ID    Z sym.   atoms
    1    5 B      1-12

molecular fragmentation (1/2 indicates fragments):
111111221111
# atoms in fragment 1/2:    10     2
 fragment masses (1/2) :      108.11       21.62
CMA distance (Bohr)    :   3.424
constraining FC (au)   :  0.0500

           -------------------------------------------------
          |                 G F N 2 - x T B                 |
           -------------------------------------------------

        Reference                      10.1021/acs.jctc.8b01176
      * Hamiltonian:
        H0-scaling (s, p, d)           1.850000    2.230000    2.230000
        zeta-weighting                 0.500000
      * Dispersion:
        s8                             2.700000
        a1                             0.520000
        a2                             5.000000
        s9                             5.000000
      * Repulsion:
        kExp                           1.500000    1.000000
        rExp                           1.000000
      * Coulomb:
        alpha                          2.000000
        third order                    shell-resolved
        anisotropic                    true
        a3                             3.000000
        a5                             4.000000
        cn-shift                       1.200000
        cn-exp                         4.000000
        max-rad                        5.000000


          ...................................................
          :                      SETUP                      :
          :.................................................:
          :  # basis functions                  48          :
          :  # atomic orbitals                  48          :
          :  # shells                           24          :
          :  # electrons                        36          :
          :  max. iterations                   250          :
          :  Hamiltonian                  GFN2-xTB          :
          :  restarted?                      false          :
          :  GBSA solvation                  false          :
          :  PC potential                    false          :
          :  electronic temp.          300.0000000     K    :
          :  accuracy                    0.2000000          :
          :  -> integral cutoff          0.3198970E+02      :
          :  -> integral neglect         0.2000000E-08      :
          :  -> SCF convergence          0.2000000E-06 Eh   :
          :  -> wf. convergence          0.2000000E-04 e    :
          :  Broyden damping             0.4000000          :
          ...................................................

 iter      E             dE          RMSdq      gap      omega  full diag
   1    -12.3695870 -0.123696E+02  0.189E+01    0.10       0.0  T
   2     -2.2388344  0.101308E+02  0.221E+01    0.13       1.0  T
   3     -2.0042830  0.234551E+00  0.198E+01    0.46       1.0  T
   4      2.2868833  0.429117E+01  0.218E+01    0.22       1.0  T
   5     -8.2206589 -0.105075E+02  0.143E+01    0.35       1.0  T
   6     -8.4928095 -0.272151E+00  0.130E+01    0.12       1.0  T
   7    -10.8946475 -0.240184E+01  0.116E+01    0.10       1.0  T
   8    -12.1139613 -0.121931E+01  0.931E+00    0.25       1.0  T
   9    -13.4466723 -0.133271E+01  0.714E+00    0.17       1.0  T
  10    -13.4618232 -0.151509E-01  0.670E+00    0.14       1.0  T
  11    -13.3222062  0.139617E+00  0.704E+00    0.20       1.0  T
  12    -13.3679409 -0.457346E-01  0.679E+00    0.21       1.0  T
  13    -13.3210902  0.468507E-01  0.633E+00    0.17       1.0  T
  14    -13.4136658 -0.925757E-01  0.467E+00    0.07       1.0  T
  15    -13.2973203  0.116346E+00  0.520E+00    0.15       1.0  T
  16    -13.2227350  0.745853E-01  0.537E+00    0.05       1.0  T
  17    -13.5420874 -0.319352E+00  0.376E+00    0.08       1.0  T
  18    -13.5313377  0.107497E-01  0.382E+00    0.07       1.0  T
  19    -13.5332181 -0.188035E-02  0.373E+00    0.07       1.0  T
  20    -13.6230854 -0.898673E-01  0.223E+00    0.11       1.0  T
  21    -13.6865227 -0.634374E-01  0.124E+00    0.11       1.0  T
  22    -13.6856030  0.919758E-03  0.126E+00    0.11       1.0  T
  23    -13.6886906 -0.308766E-02  0.118E+00    0.11       1.0  T
  24    -13.6886360  0.546405E-04  0.106E+00    0.11       1.0  T
  25    -13.6880310  0.605014E-03  0.791E-01    0.13       1.0  T
  26    -13.6904791 -0.244816E-02  0.735E-01    0.13       1.0  T
  27    -13.6916541 -0.117501E-02  0.680E-01    0.13       1.0  T
  28    -13.6911384  0.515732E-03  0.713E-01    0.13       1.0  T
  29    -13.6925773 -0.143891E-02  0.594E-01    0.13       1.0  T
  30    -13.6951623 -0.258497E-02  0.377E-01    0.13       1.0  T
  31    -13.6954696 -0.307313E-03  0.298E-01    0.12       1.0  T
  32    -13.6958648 -0.395183E-03  0.172E-01    0.13       1.0  T
  33    -13.6959583 -0.935187E-04  0.110E-01    0.13       1.0  T
  34    -13.6959641 -0.579894E-05  0.914E-02    0.12       1.0  T
  35    -13.6960086 -0.445257E-04  0.646E-02    0.12       1.0  T
  36    -13.6960155 -0.683881E-05  0.557E-02    0.12       1.0  T
  37    -13.6960373 -0.218827E-04  0.278E-02    0.12       1.0  T
  38    -13.6960390 -0.170293E-05  0.245E-02    0.12       1.2  T
  39    -13.6960417 -0.269859E-05  0.195E-02    0.12       1.5  T
  40    -13.6960430 -0.122860E-05  0.131E-02    0.12       2.2  T
  41    -13.6960430 -0.430713E-07  0.120E-02    0.12       2.4  T
  42    -13.6960441 -0.107502E-05  0.439E-03    0.12       6.6  T
  43    -13.6960441 -0.326403E-07  0.332E-03    0.12       8.7  T
  44    -13.6960442 -0.696790E-07  0.184E-03    0.12      15.7  T
  45    -13.6960442 -0.242067E-07  0.125E-03    0.12      23.0  T
  46    -13.6960442 -0.145485E-08  0.122E-03    0.12      23.6  T
  47    -13.6960442 -0.993631E-08  0.619E-04    0.12      46.6  T
  48    -13.6960442 -0.747558E-09  0.447E-04    0.12      64.6  T
  49    -13.6960442 -0.197748E-08  0.147E-04    0.12     196.5  T
  50    -13.6960442 -0.799165E-10  0.846E-05    0.12     341.2  T

   *** convergence criteria satisfied after 50 iterations ***

         #    Occupation            Energy/Eh            Energy/eV
      -------------------------------------------------------------
         1        2.0000           -0.4482142             -12.1965
       ...           ...                  ...                  ...
        12        2.0000           -0.2844581              -7.7405
        13        2.0000           -0.2759601              -7.5093
        14        2.0000           -0.2686676              -7.3108
        15        2.0000           -0.2640919              -7.1863
        16        1.9999           -0.2515251              -6.8443
        17        1.9883           -0.2473411              -6.7305
        18        1.8383           -0.2447748              -6.6607 (HOMO)
        19        0.1735           -0.2402289              -6.5370 (LUMO)
        20        0.0000           -0.2308197              -6.2809
        21                         -0.2187767              -5.9532
        22                         -0.2175025              -5.9185
        23                         -0.2095556              -5.7023
       ...                                ...                  ...
        48                          2.9761431              80.9850
      -------------------------------------------------------------
                  HL-Gap            0.0045460 Eh            0.1237 eV
             Fermi-level           -0.2424651 Eh           -6.5978 eV

 SCC (total)                   0 d,  0 h,  0 min,  0.052 sec
 SCC setup                      ...        0 min,  0.000 sec (  0.256%)
 Dispersion                     ...        0 min,  0.000 sec (  0.194%)
 classical contributions        ...        0 min,  0.000 sec (  0.059%)
 integral evaluation            ...        0 min,  0.003 sec (  5.127%)
 iterations                     ...        0 min,  0.043 sec ( 83.264%)
 molecular gradient             ...        0 min,  0.005 sec ( 10.479%)
 printout                       ...        0 min,  0.000 sec (  0.572%)

         :::::::::::::::::::::::::::::::::::::::::::::::::::::
         ::                     SUMMARY                     ::
         :::::::::::::::::::::::::::::::::::::::::::::::::::::
         :: total energy             -13.318561907738 Eh    ::
         :: gradient norm              0.992511249040 Eh/a0 ::
         :: HOMO-LUMO gap              0.123702326614 eV    ::
         ::.................................................::
         :: SCC energy               -13.696044223656 Eh    ::
         :: -> isotropic ES            0.061446621193 Eh    ::
         :: -> anisotropic ES          0.000101097293 Eh    ::
         :: -> anisotropic XC         -0.022044258034 Eh    ::
         :: -> dispersion             -0.018342960728 Eh    ::
         :: repulsion energy           0.377440690264 Eh    ::
         :: add. restraining           0.000000000000 Eh    ::
         :: total charge               0.000000000001 e     ::
         :::::::::::::::::::::::::::::::::::::::::::::::::::::


Property printout bound to 'properties.out'

           -------------------------------------------------
          | TOTAL ENERGY              -13.318561907738 Eh   |
          | GRADIENT NORM               0.992511249040 Eh/α |
          | HOMO-LUMO GAP               0.123702326614 eV   |
           -------------------------------------------------

------------------------------------------------------------------------
 * finished run on 2026/04/17 at 12:14:10.870     
------------------------------------------------------------------------
 total:
 * wall-time:     0 d,  0 h,  0 min,  0.063 sec
 *  cpu-time:     0 d,  0 h,  0 min,  0.063 sec
 * ratio c/w:     0.999 speedup
 SCF:
 * wall-time:     0 d,  0 h,  0 min,  0.052 sec
 *  cpu-time:     0 d,  0 h,  0 min,  0.052 sec
 * ratio c/w:     1.000 speedup


-------------------------   --------------------
FINAL SINGLE POINT ENERGY       -13.318561907740
-------------------------   --------------------


-------------
DIPOLE MOMENT
-------------
                                X             Y             Z
Total Dipole Moment    :     -1.37900       1.21700       0.44200
                        -----------------------------------------
Magnitude (a.u.)       :      1.89159
Magnitude (Debye)      :      4.80803


------------------
CARTESIAN GRADIENT
------------------

   1   B   :   -0.172138648    0.313266624   -0.136129008
   2   B   :    0.032267110    0.058293703   -0.050751691
   3   B   :    0.135174372   -0.284520713    0.169997671
   4   B   :   -0.028238671   -0.049395664   -0.041022590
   5   B   :    0.084437365   -0.044845474   -0.011464865
   6   B   :   -0.022046608    0.017345391   -0.055587367
   7   B   :   -0.009968460   -0.047507744   -0.015506855
   8   B   :    0.046666700   -0.000979209   -0.007597676
   9   B   :   -0.016866019   -0.400835851   -0.385298261
  10   B   :   -0.013382578    0.022981765    0.033208471
  11   B   :   -0.025499281    0.007882322    0.053986308
  12   B   :   -0.010405282    0.408314850    0.446165863

Difference to translation invariance:
           :   -0.0000000000   -0.0000000000   -0.0000000000

Difference to rotation invariance:
           :    0.0000000659   -0.0000000220   -0.0000000563

Norm of the Cartesian gradient     ...    0.9925112490
RMS gradient                       ...    0.1654185415
MAX gradient                       ...    0.4461658631
------------------------------------------------------------------------------
                         ORCA GEOMETRY RELAXATION STEP
------------------------------------------------------------------------------

Reading the OPT-File                    .... done
Getting information on internals        .... done
Copying old internal coords+grads       .... done
Making the new internal coordinates     .... (2022 redundants) done
Validating the new internal coordinates .... (2022 redundants) done
Calculating the B-matrix                .... done
Calculating the G,G- and P matrices     .... done
Transforming gradient to internals      .... done
Projecting the internal gradient        .... done
Number of atoms                         ....  12
Number of internal coordinates          .... 243
Current Energy                          ....   -13.318561908 Eh
Current gradient norm                   ....     0.992511249 Eh/bohr
Maximum allowed component of the step   ....  0.300
Current trust radius                    ....  0.300
Evaluating the initial hessian          ....  (Almloef) done
Projecting the Hessian                  .... done
Forming the augmented Hessian           .... done
Diagonalizing the augmented Hessian     .... done
Last element of RFO vector              ....  0.862456659
Lowest eigenvalues of augmented Hessian:
 -0.246966838  0.015862474  0.019889051  0.021207733  0.023755229
Length of the computed step             ....  0.586847951
Warning: the length of the step is outside the trust region - taking restricted step instead
The input lambda is                     ....     0.014823
   iter:   5  x=   -0.016776  g=  515.419722 f(x)=     7.426470
   iter:  10  x=   -0.551547  g=    0.783178 f(x)=     0.179407
   iter:  15  x=   -0.901256  g=    0.123308 f(x)=     0.000000
The output lambda is                    ....    -0.901256 (17 iterations)
The final length of the internal step   ....  0.300000000
Converting the step to Cartesian space:
 Initial RMS(Int)=    0.0192450090
Transforming coordinates:
 Iter   0:  RMS(Cart)=    0.0263748939 RMS(Int)=    0.4030853124
done
Storing new coordinates                 .... done

                                .--------------------.
          ----------------------|Geometry convergence|-------------------------
          Item                value                   Tolerance       Converged
          ---------------------------------------------------------------------
          RMS gradient        0.0292765951            0.0000300000      NO
          MAX gradient        0.2175084367            0.0001000000      NO
          RMS step            0.0192450090            0.0006000000      NO
          MAX step            0.1363718953            0.0010000000      NO
          -------------------------------------------------------------------------
          ........................................................
          Max(Bonds)      0.0722      Max(Angles)    1.87
          Max(Dihed)        2.34      Max(Improp)    0.00
          ---------------------------------------------------------------------

The optimization has not yet converged - more geometry cycles are needed


    ---------------------------------------------------------------------------
                         Redundant Internal Coordinates
                            (Angstroem and degrees)

        Definition                    Value    dE/dq     Step     New-Value
    ----------------------------------------------------------------------------
     1. B(B   1,B   0)                2.0236 -0.068361  0.0208    2.0444   
     2. B(B   2,B   1)                1.6698 -0.035961  0.0101    1.6798   
     3. B(B   2,B   0)                1.2774 -0.191258  0.0632    1.3406   
     4. B(B   6,B   5)                2.5531  0.020434 -0.0114    2.5418   
     5. B(B   6,B   4)                2.7635  0.019632 -0.0108    2.7527   
     6. B(B   7,B   2)                3.0854 -0.018771  0.0031    3.0885   
     7. B(B   7,B   1)                3.0156  0.007911 -0.0049    3.0107   
     8. B(B   7,B   0)                2.7500  0.019608 -0.0090    2.7410   
     9. B(B   7,B   4)                3.2566  0.016804 -0.0079    3.2487   
    10. B(B   8,B   2)                1.6999  0.033089 -0.0118    1.6881   
    11. B(B   8,B   7)                2.5699 -0.023897  0.0062    2.5761   
    12. B(B   8,B   1)                1.6120 -0.091984  0.0295    1.6415   
    13. B(B   9,B   6)                2.3146  0.012164 -0.0076    2.3071   
    14. B(B   9,B   4)                1.9122  0.033321 -0.0187    1.8935   
    15. B(B   9,B   1)                1.6422  0.019509 -0.0093    1.6329   
    16. B(B   9,B   5)                1.5326  0.009722 -0.0041    1.5285   
    17. B(B  10,B   9)                1.7708  0.024453 -0.0124    1.7584   
    18. B(B  10,B   5)                2.0494  0.017021 -0.0088    2.0406   
    19. B(B  10,B   6)                2.8580  0.022688 -0.0127    2.8453   
    20. B(B  11,B   8)                1.2321 -0.217508  0.0722    1.3043   
    21. B(B  11,B   3)                1.6866  0.067549 -0.0302    1.6564   
    22. B(B  11,B   1)                1.5499 -0.108104  0.0345    1.5845   
    23. B(B  11,B   7)                2.5403 -0.013260  0.0018    2.5422   
    24. A(B   1,B   0,B   2)           55.36  0.013182   -0.49     54.87   
    25. A(B   1,B   0,B   7)           76.68  0.007242   -0.24     76.44   
    26. A(B   2,B   0,B   7)           92.65  0.023474   -0.88     91.78   
    27. A(B   8,B   1,B  11)           45.82 -0.051091    1.87     47.69   
    28. A(B   7,B   1,B   9)          104.25  0.003876   -0.13    104.12   
    29. A(B   8,B   1,B   9)          162.70 -0.005800    0.22    162.91   
    30. A(B   0,B   1,B   9)           83.93  0.011196   -0.52     83.41   
    31. A(B   2,B   1,B   7)           76.43 -0.004764    0.15     76.58   
    32. A(B   0,B   1,B   8)           87.27 -0.003789    0.20     87.47   
    33. A(B   2,B   1,B   8)           62.36  0.036936   -1.30     61.07   
    34. A(B   2,B   1,B   9)          116.54 -0.033433    1.11    117.64   
    35. A(B   0,B   1,B   2)           39.01 -0.047569    1.74     40.75   
    36. A(B   2,B   1,B  11)          106.70 -0.014986    0.58    107.29   
    37. A(B   0,B   1,B  11)          116.83 -0.017975    0.65    117.49   
    38. A(B   9,B   1,B  11)          127.13  0.040433   -1.45    125.68   
    39. A(B   7,B   1,B   8)           58.44 -0.009643    0.35     58.80   
    40. A(B   7,B   1,B  11)           57.35 -0.007965    0.26     57.61   
    41. A(B   0,B   1,B   7)           62.55  0.007891   -0.29     62.26   
    42. A(B   0,B   2,B   7)           62.92  0.011547   -0.40     62.52   
    43. A(B   1,B   2,B   8)           57.15 -0.032770    1.19     58.34   
    44. A(B   0,B   2,B   1)           85.63  0.034386   -1.25     84.38   
    45. A(B   0,B   2,B   8)          115.38  0.003634   -0.11    115.28   
    46. A(B   1,B   2,B   7)           71.83  0.010534   -0.35     71.48   
    47. A(B   7,B   2,B   8)           56.40 -0.002533    0.12     56.52   
    48. A(B   6,B   4,B   9)           55.83 -0.002059    0.10     55.93   
    49. A(B   7,B   4,B   9)           89.85 -0.000793    0.10     89.95   
    50. A(B   6,B   4,B   7)          118.87  0.004134   -0.18    118.69   
    51. A(B   9,B   5,B  10)           57.09  0.003716   -0.21     56.88   
    52. A(B   6,B   5,B  10)           75.90 -0.000148   -0.00     75.89   
    53. A(B   6,B   5,B   9)           63.35 -0.002079    0.09     63.44   
    54. A(B   4,B   6,B   9)           43.12  0.004722   -0.29     42.83   
    55. A(B   4,B   6,B  10)           44.15  0.013440   -0.76     43.40   
    56. A(B   5,B   6,B  10)           44.06  0.000152    0.01     44.07   
    57. A(B   9,B   6,B  10)           38.25  0.002435   -0.12     38.13   
    58. A(B   4,B   6,B   5)           75.47  0.007654   -0.42     75.05   
    59. A(B   5,B   6,B   9)           36.28 -0.000343    0.06     36.34   
    60. A(B   0,B   7,B   1)           40.77 -0.015132    0.54     41.31   
    61. A(B   1,B   7,B  11)           30.91 -0.023502    0.84     31.75   
    62. A(B   1,B   7,B   8)           32.31 -0.019730    0.71     33.02   
    63. A(B   4,B   7,B   8)           84.41 -0.012007    0.27     84.68   
    64. A(B   0,B   7,B   8)           56.58 -0.026624    0.99     57.58   
    65. A(B   0,B   7,B  11)           70.40 -0.045293    1.63     72.03   
    66. A(B   8,B   7,B  11)           27.90 -0.044467    1.62     29.52   
    67. A(B   2,B   7,B   4)           62.32 -0.012809    0.25     62.58   
    68. A(B   0,B   7,B   4)           42.29  0.014810   -0.77     41.52   
    69. A(B   4,B   7,B  11)           79.67 -0.005645    0.09     79.75   
    70. A(B   1,B   7,B   4)           53.37  0.005001   -0.32     53.04   
    71. A(B   0,B   7,B   2)           24.43 -0.035022    1.28     25.71   
    72. A(B   1,B   7,B   2)           31.74 -0.005770    0.20     31.94   
    73. A(B   2,B   7,B   8)           33.43  0.008938   -0.30     33.13   
    74. A(B   2,B   7,B  11)           53.63 -0.027386    1.00     54.64   
    75. A(B   2,B   8,B  11)          122.82  0.007320   -0.35    122.47   
    76. A(B   1,B   8,B  11)           64.43  0.014321   -0.54     63.89   
    77. A(B   7,B   8,B  11)           74.72  0.024363   -0.92     73.79   
    78. A(B   2,B   8,B   7)           90.17 -0.006405    0.18     90.35   
    79. A(B   1,B   8,B   7)           89.24  0.029373   -1.06     88.18   
    80. A(B   1,B   8,B   2)           60.48 -0.004166    0.11     60.60   
    81. A(B   5,B   9,B   6)           80.36  0.002422   -0.14     80.22   
    82. A(B   4,B   9,B   6)           81.05 -0.002663    0.19     81.24   
    83. A(B   1,B   9,B   6)          149.73 -0.002205    0.09    149.82   
    84. A(B   4,B   9,B   5)          141.88  0.013182   -0.75    141.13   
    85. A(B   1,B   9,B   5)          107.81 -0.004538    0.32    108.14   
    86. A(B   1,B   9,B   4)          105.01 -0.002116    0.05    105.06   
    87. A(B   5,B   9,B  10)           76.31 -0.002082    0.09     76.40   
    88. A(B   4,B   9,B  10)           69.96  0.017102   -0.96     69.00   
    89. A(B   6,B   9,B  10)           87.73 -0.000454    0.02     87.75   
    90. A(B   1,B   9,B  10)          122.39  0.003091   -0.14    122.25   
    91. A(B   6,B  10,B   9)           54.02 -0.001981    0.09     54.12   
    92. A(B   5,B  10,B   6)           60.04 -0.000005   -0.00     60.04   
    93. A(B   5,B  10,B   9)           46.60 -0.001634    0.12     46.72   
    94. A(B   3,B  11,B   8)          152.17  0.015088   -0.66    151.51   
    95. A(B   1,B  11,B   8)           69.75  0.036770   -1.33     68.42   
    96. A(B   1,B  11,B   3)           83.21 -0.022082    0.67     83.88   
    97. A(B   7,B  11,B   8)           77.39  0.020104   -0.70     76.69   
    98. A(B   3,B  11,B   7)          110.87 -0.014475    0.48    111.36   
    99. A(B   1,B  11,B   7)           91.73  0.031467   -1.10     90.63   
   100. D(B   2,B   1,B   0,B   7)   -102.79 -0.019248    0.74   -102.05   
   101. D(B  11,B   1,B   0,B   7)    -19.26 -0.052482    2.02    -17.24   
   102. D(B   8,B   1,B   0,B   2)     47.24  0.025869   -0.94     46.29   
   103. D(B  11,B   1,B   0,B   2)     83.53 -0.033234    1.28     84.81   
   104. D(B   9,B   1,B   0,B   7)    109.52 -0.004420    0.24    109.76   
   105. D(B   9,B   1,B   0,B   2)   -147.69  0.014828   -0.50   -148.19   
   106. D(B   8,B   1,B   0,B   7)    -55.55  0.006622   -0.20    -55.76   
   107. D(B   0,B   2,B   1,B   9)     36.45  0.005863   -0.22     36.23   
   108. D(B   8,B   2,B   0,B   7)     21.47  0.013353   -0.43     21.05   
   109. D(B   0,B   2,B   1,B   8)   -124.13  0.006500   -0.27   -124.40   
   110. D(B   8,B   2,B   0,B   1)    -50.33  0.018119   -0.64    -50.97   
   111. D(B   7,B   2,B   0,B   1)    -71.80  0.004766   -0.21    -72.02   
   112. D(B   8,B   2,B   1,B   9)    160.58 -0.000637    0.05    160.63   
   113. D(B   8,B   2,B   1,B   0)    124.13 -0.006500    0.27    124.40   
   114. D(B   0,B   2,B   1,B   7)    -62.90 -0.001720    0.04    -62.86   
   115. D(B   1,B   2,B   0,B   7)     71.80 -0.004766    0.21     72.02   
   116. D(B   8,B   2,B   1,B   7)     61.23 -0.008220    0.31     61.54   
   117. D(B   8,B   2,B   1,B  11)     11.91 -0.004482    0.25     12.15   
   118. D(B   0,B   2,B   1,B  11)   -112.23  0.002018   -0.03   -112.25   
   119. D(B   5,B   6,B   4,B   7)    -87.48  0.016111   -0.96    -88.44   
   120. D(B  10,B   6,B   4,B   9)    -56.67  0.006791   -0.43    -57.10   
   121. D(B   5,B   6,B   4,B   9)    -19.68  0.009171   -0.55    -20.23   
   122. D(B   4,B   6,B   5,B   9)     22.89 -0.008500    0.49     23.38   
   123. D(B   9,B   6,B   5,B  10)    -59.95 -0.004222    0.23    -59.72   
   124. D(B   4,B   6,B   5,B  10)    -37.06 -0.012722    0.72    -36.34   
   125. D(B  10,B   6,B   5,B   9)     59.95  0.004222   -0.23     59.72   
   126. D(B  10,B   6,B   4,B   7)   -124.47  0.013731   -0.84   -125.31   
   127. D(B   9,B   6,B   4,B   7)    -67.80  0.006940   -0.41    -68.21   
   128. D(B   8,B   7,B   0,B   1)     38.24 -0.009799    0.32     38.56   
   129. D(B   1,B   7,B   4,B   9)     15.35 -0.005981    0.32     15.67   
   130. D(B   0,B   7,B   4,B   9)     69.54 -0.034475    1.48     71.02   
   131. D(B  11,B   7,B   0,B   2)    -42.45  0.019579   -0.78    -43.22   
   132. D(B   8,B   7,B   4,B   9)     25.15 -0.019264    0.88     26.03   
   133. D(B   8,B   7,B   4,B   6)     75.15 -0.024303    1.16     76.30   
   134. D(B   0,B   7,B   2,B   8)   -156.60  0.014667   -0.48   -157.08   
   135. D(B   8,B   7,B   1,B  11)     54.70 -0.056812    2.09     56.79   
   136. D(B   0,B   7,B   2,B   1)    -94.46 -0.030718    1.14    -93.32   
   137. D(B   8,B   7,B   2,B   0)    156.60 -0.014667    0.48    157.08   
   138. D(B  11,B   7,B   2,B   8)    -28.75  0.037016   -1.37    -30.12   
   139. D(B   8,B   7,B   2,B   1)     62.14 -0.045386    1.62     63.76   
   140. D(B   0,B   7,B   1,B   8)    104.84 -0.004526    0.25    105.09   
   141. D(B   1,B   7,B   2,B   0)     94.46  0.030718   -1.14     93.32   
   142. D(B   0,B   7,B   1,B   2)     39.16 -0.050442    1.86     41.01   
   143. D(B  11,B   7,B   4,B   6)     47.38  0.019603   -0.46     46.91   
   144. D(B  11,B   7,B   2,B   0)    127.86  0.022349   -0.89    126.96   
   145. D(B  11,B   7,B   2,B   1)     33.39 -0.008369    0.25     33.64   
   146. D(B   8,B   7,B   1,B   9)    179.93 -0.009671    0.41    180.33   
   147. D(B   8,B   7,B   1,B   2)    -65.68 -0.045916    1.60    -64.08   
   148. D(B   8,B   7,B   1,B   0)   -104.84  0.004526   -0.25   -105.09   
   149. D(B  11,B   7,B   1,B   8)    -54.70  0.056812   -2.09    -56.79   
   150. D(B  11,B   7,B   1,B   0)   -159.54  0.061338   -2.34   -161.88   
   151. D(B  11,B   7,B   4,B   9)     -2.62  0.024642   -0.74     -3.36   
   152. D(B  11,B   7,B   1,B   2)   -120.38  0.010896   -0.49   -120.87   
   153. D(B   2,B   7,B   0,B   1)     53.44  0.007856   -0.28     53.15   
   154. D(B  11,B   7,B   1,B   9)    125.23  0.047140   -1.69    123.54   
   155. D(B   4,B   7,B   0,B   1)    -85.24 -0.008514    0.31    -84.93   
   156. D(B  11,B   7,B   0,B   1)     10.99  0.027435   -1.06      9.93   
   157. D(B   0,B   7,B   4,B   6)    119.54 -0.039514    1.76    121.30   
   158. D(B   8,B   7,B   0,B   2)    -15.19 -0.017654    0.60    -14.59   
   159. D(B   1,B   7,B   0,B   2)    -53.44 -0.007856    0.28    -53.15   
   160. D(B   2,B   8,B   1,B  11)   -164.01  0.009428   -0.24   -164.24   
   161. D(B   2,B   8,B   1,B   9)    -90.86 -0.007518    0.51    -90.35   
   162. D(B   2,B   8,B   1,B   0)    -31.44  0.033099   -1.20    -32.64   
   163. D(B   2,B   8,B   7,B   4)     45.68  0.007358   -0.39     45.29   
   164. D(B   2,B   8,B   7,B   1)     60.48 -0.003741    0.10     60.58   
   165. D(B   2,B   8,B   7,B   0)     11.35 -0.005143    0.21     11.56   
   166. D(B   1,B   8,B   7,B   4)    -14.80  0.011098   -0.49    -15.29   
   167. D(B   1,B   8,B   7,B   2)    -60.48  0.003741   -0.10    -60.58   
   168. D(B   1,B   8,B   7,B   0)    -49.13 -0.001403    0.11    -49.02   
   169. D(B   1,B   8,B   7,B  11)     63.65  0.009120   -0.36     63.29   
   170. D(B   7,B   8,B   2,B   0)    -23.04 -0.017660    0.58    -22.46   
   171. D(B  11,B   8,B   2,B   7)     71.83  0.023563   -0.92     70.92   
   172. D(B  11,B   8,B   2,B   1)    -17.20 -0.013767    0.41    -16.80   
   173. D(B  11,B   8,B   1,B   9)     73.15 -0.016946    0.74     73.89   
   174. D(B   1,B   8,B   2,B   0)     66.00  0.019671   -0.74     65.26   
   175. D(B  11,B   8,B   1,B   7)     73.39  0.014488   -0.57     72.81   
   176. D(B  11,B   8,B   2,B   0)     48.80  0.005904   -0.34     48.46   
   177. D(B   2,B   8,B   7,B  11)    124.13  0.005380   -0.26    123.87   
   178. D(B  11,B   8,B   1,B   2)    164.01 -0.009428    0.24    164.24   
   179. D(B  11,B   8,B   1,B   0)    132.57  0.023671   -0.96    131.61   
   180. D(B   2,B   8,B   1,B   7)    -90.62  0.023916   -0.81    -91.43   
   181. D(B   1,B   8,B   2,B   7)     89.04  0.037331   -1.32     87.71   
   182. D(B   5,B   9,B   6,B  10)    -76.50  0.002037   -0.08    -76.58   
   183. D(B   5,B   9,B   6,B   4)   -146.57 -0.015308    0.89   -145.68   
   184. D(B   4,B   9,B   6,B  10)     70.07  0.017345   -0.97     69.10   
   185. D(B   1,B   9,B   6,B  10)    174.56  0.007883   -0.52    174.04   
   186. D(B   1,B   9,B   6,B   4)    104.49 -0.009462    0.45    104.94   
   187. D(B   1,B   9,B   6,B   5)   -108.94  0.005846   -0.44   -109.38   
   188. D(B  10,B   9,B   5,B   6)    -90.00  0.000710   -0.04    -90.04   
   189. D(B   4,B   9,B   5,B   6)    -61.83  0.012717   -0.78    -62.62   
   190. D(B   4,B   9,B   5,B  10)     28.17  0.012007   -0.74     27.43   
   191. D(B   1,B   9,B   5,B   6)    149.95 -0.002503    0.12    150.06   
   192. D(B   1,B   9,B   5,B  10)   -120.05 -0.003213    0.16   -119.89   
   193. D(B  10,B   9,B   4,B   7)   -143.33  0.004781   -0.26   -143.59   
   194. D(B  10,B   9,B   4,B   6)     90.84 -0.002297    0.11     90.95   
   195. D(B   5,B   9,B   4,B   7)   -172.55 -0.003990    0.31   -172.24   
   196. D(B   5,B   9,B   4,B   6)     61.62 -0.011068    0.68     62.30   
   197. D(B   1,B   9,B   4,B   7)    -23.82  0.010390   -0.52    -24.34   
   198. D(B   1,B   9,B   4,B   6)   -149.65  0.003312   -0.15   -149.80   
   199. D(B   5,B   9,B   1,B  11)   -113.31 -0.008976    0.13   -113.17   
   200. D(B   5,B   9,B   1,B   8)   -172.71  0.031920   -1.47   -174.19   
   201. D(B   6,B   9,B   5,B  10)     90.00 -0.000710    0.04     90.04   
   202. D(B   5,B   9,B   1,B   2)    105.34  0.014042   -0.62    104.71   
   203. D(B   5,B   9,B   1,B   0)    127.43 -0.007055    0.15    127.58   
   204. D(B   4,B   9,B   1,B   7)     26.75 -0.010687    0.55     27.30   
   205. D(B   4,B   9,B   6,B   5)    146.57  0.015308   -0.89    145.68   
   206. D(B   4,B   9,B   1,B  11)     86.36 -0.023965    1.00     87.36   
   207. D(B   4,B   9,B   1,B   8)     26.96  0.016931   -0.61     26.35   
   208. D(B   4,B   9,B   1,B   2)    -54.99 -0.000947    0.24    -54.75   
   209. D(B   4,B   9,B   1,B   0)    -32.90 -0.022045    1.01    -31.89   
   210. D(B   6,B  10,B   9,B   5)     80.63  0.002602   -0.15     80.48   
   211. D(B   6,B  10,B   9,B   4)    -81.30  0.002402   -0.18    -81.48   
   212. D(B   6,B  10,B   9,B   1)   -176.76 -0.004367    0.30   -176.46   
   213. D(B   5,B  10,B   9,B   6)    -80.63 -0.002602    0.15    -80.48   
   214. D(B   5,B  10,B   9,B   4)   -161.93 -0.000199   -0.02   -161.96   
   215. D(B   5,B  10,B   9,B   1)    102.61 -0.006968    0.45    103.07   
   216. D(B   9,B  10,B   6,B   4)     67.29 -0.006001    0.29     67.58   
   217. D(B   9,B  10,B   6,B   5)    -55.84  0.001641   -0.13    -55.97   
   218. D(B   5,B  10,B   6,B   4)    123.13 -0.007642    0.42    123.55   
   219. D(B   5,B  10,B   6,B   9)     55.84 -0.001641    0.13     55.97   
   220. D(B   6,B  10,B   5,B   9)    -67.16  0.002388   -0.10    -67.26   
   221. D(B   9,B  10,B   5,B   6)     67.16 -0.002388    0.10     67.26   
   222. D(B   3,B  11,B   1,B   7)    110.82 -0.017940    0.60    111.42   
   223. D(B   3,B  11,B   1,B   9)     27.61  0.012838   -0.48     27.13   
   224. D(B   3,B  11,B   1,B   8)   -173.31 -0.004016    0.12   -173.19   
   225. D(B   3,B  11,B   1,B   2)    171.93 -0.016597    0.47    172.40   
   226. D(B   3,B  11,B   1,B   0)    131.16  0.041161   -1.66    129.50   
   227. D(B   7,B  11,B   8,B   1)    -96.64 -0.016734    0.58    -96.06   
   228. D(B   3,B  11,B   8,B   2)     30.93  0.008379   -0.34     30.59   
   229. D(B   3,B  11,B   8,B   1)     14.36 -0.002116   -0.05     14.31   
   230. D(B   1,B  11,B   8,B   7)     96.64  0.016734   -0.58     96.06   
   231. D(B   3,B  11,B   7,B   2)   -117.70 -0.000287    0.19   -117.51   
   232. D(B   3,B  11,B   7,B   1)    -83.39  0.011467   -0.29    -83.68   
   233. D(B   3,B  11,B   7,B   0)    -97.42 -0.029236    1.27    -96.15   
   234. D(B   3,B  11,B   7,B   8)   -152.19 -0.020942    0.89   -151.31   
   235. D(B   1,B  11,B   7,B   4)     28.82 -0.028291    0.90     29.72   
   236. D(B   1,B  11,B   7,B   2)    -34.31 -0.011753    0.48    -33.83   
   237. D(B   1,B  11,B   8,B   2)     16.58  0.010495   -0.30     16.28   
   238. D(B   1,B  11,B   7,B   0)    -14.02 -0.040703    1.56    -12.47   
   239. D(B   1,B  11,B   7,B   8)    -68.80 -0.032409    1.17    -67.63   
   240. D(B   8,B  11,B   1,B   9)   -159.08  0.016854   -0.60   -159.68   
   241. D(B   3,B  11,B   8,B   7)    110.99  0.014618   -0.62    110.37   
   242. D(B   8,B  11,B   1,B   2)    -14.77 -0.012581    0.35    -14.41   
   243. D(B   8,B  11,B   1,B   0)    -55.53  0.045177   -1.78    -57.31   
    ----------------------------------------------------------------------------

Geometry step timings:
Preparation and reading OPT file:      0.000 s ( 0.187 %)
Internal coordinates            :      0.000 s ( 0.305 %)
B/P matrices and projection     :      0.004 s (18.718 %)
Hessian update/contruction      :      0.004 s (17.248 %)
Making the step                 :      0.012 s (52.413 %)
Converting the step to Cartesian:      0.001 s ( 2.489 %)
Storing new data                :      0.000 s ( 0.361 %)
Checking convergence            :      0.000 s ( 0.466 %)
Final printing                  :      0.002 s ( 7.810 %)
Total time                      :      0.023 s

Time for energy+gradient        :      0.074 s
Time for complete geometry iter :      0.100 s

         *************************************************************
         *                GEOMETRY OPTIMIZATION CYCLE   2            *
         *************************************************************
---------------------------------
CARTESIAN COORDINATES (ANGSTROEM)
---------------------------------
  B     0.713965    0.805108    1.459761
  B    -0.342441    0.753792   -0.289560
  B     0.084188    1.852079    0.907986
  B    -0.177514   -0.246367   -2.204473
  B     0.870009   -1.339381    1.126890
  B    -2.179041   -0.981526    0.125280
  B    -0.746090   -3.032766   -0.321591
  B     2.661072    0.851254   -0.469129
  B     0.439484    2.131728   -0.718083
  B    -0.664553   -0.779970    0.169009
  B    -1.074279   -1.196944    1.827351
  B     0.415198    1.182991   -1.613442

----------------------------
CARTESIAN COORDINATES (A.U.)
----------------------------
  NO LB    ZA    FRAG    MASS        X           Y           Z
   0 B   5.0000    0    10.810    1.349199    1.521434    2.758549
   1 B   5.0000    0    10.810   -0.647120    1.424460   -0.547190
   2 B   5.0000    0    10.810    0.159092    3.499923    1.715845
   3 B   5.0000    0    10.810   -0.335452   -0.465565   -4.165851
   4 B   5.0000    0    10.810    1.644079   -2.531063    2.129514
   5 B   5.0000    0    10.810   -4.117790   -1.854815    0.236745
   6 B   5.0000    0    10.810   -1.409905   -5.731097   -0.607719
   7 B   5.0000    0    10.810    5.028698    1.608638   -0.886525
   8 B   5.0000    0    10.810    0.830505    4.028383   -1.356980
   9 B   5.0000    0    10.810   -1.255824   -1.473929    0.319380
  10 B   5.0000    0    10.810   -2.030092   -2.261897    3.453194
  11 B   5.0000    0    10.810    0.784611    2.235530   -3.048963

      -----------------------------------------------------------      
     |                   =====================                   |     
     |                           x T B                           |     
     |                   =====================                   |     
     |                         S. Grimme                         |     
     |          Mulliken Center for Theoretical Chemistry        |     
     |                    University of Bonn                     |     
      -----------------------------------------------------------      

   * xtb version 6.6.1 (unknown) compiled by 'builduser@buildhost' on 2023-08-07

   xtb is free software: you can redistribute it and/or modify it under
   the terms of the GNU Lesser General Public License as published by
   the Free Software Foundation, either version 3 of the License, or
   (at your option) any later version.
   
   xtb is distributed in the hope that it will be useful,
   but WITHOUT ANY WARRANTY; without even the implied warranty of
   MERCHANTABILITY or FITNESS FOR A PARTICULAR PURPOSE.  See the
   GNU Lesser General Public License for more details.
   
   Cite this work as:
   * C. Bannwarth, E. Caldeweyher, S. Ehlert, A. Hansen, P. Pracht,
     J. Seibert, S. Spicher, S. Grimme, WIREs Comput. Mol. Sci., 2020, 11,
     e01493. DOI: 10.1002/wcms.1493
   
   for GFN2-xTB:
   * C. Bannwarth, S. Ehlert and S. Grimme., J. Chem. Theory Comput., 2019,
     15, 1652-1671. DOI: 10.1021/acs.jctc.8b01176
   for GFN1-xTB:
   * S. Grimme, C. Bannwarth, P. Shushkov, J. Chem. Theory Comput., 2017,
     13, 1989-2009. DOI: 10.1021/acs.jctc.7b00118
   for GFN0-xTB:
   * P. Pracht, E. Caldeweyher, S. Ehlert, S. Grimme, ChemRxiv, 2019, preprint.
     DOI: 10.26434/chemrxiv.8326202.v1
   for GFN-FF:
   * S. Spicher and S. Grimme, Angew. Chem. Int. Ed., 2020, 59, 15665-15673.
     DOI: 10.1002/anie.202004239
   
   for ALPB and GBSA implicit solvation:
   * S. Ehlert, M. Stahn, S. Spicher, S. Grimme, J. Chem. Theory Comput.,
     2021, 17, 4250-4261. DOI: 10.1021/acs.jctc.1c00471
   
   for DFT-D4:
   * E. Caldeweyher, C. Bannwarth and S. Grimme, J. Chem. Phys., 2017,
     147, 034112. DOI: 10.1063/1.4993215
   * E. Caldeweyher, S. Ehlert, A. Hansen, H. Neugebauer, S. Spicher,
     C. Bannwarth and S. Grimme, J. Chem. Phys., 2019, 150, 154122.
     DOI: 10.1063/1.5090222
   * E. Caldeweyher, J.-M. Mewes, S. Ehlert and S. Grimme, Phys. Chem. Chem. Phys.
     2020, 22, 8499-8512. DOI: 10.1039/D0CP00502A
   
   for sTDA-xTB:
   * S. Grimme and C. Bannwarth, J. Chem. Phys., 2016, 145, 054103.
     DOI: 10.1063/1.4959605
   
   in the mass-spec context:
   * V. Asgeirsson, C. Bauer and S. Grimme, Chem. Sci., 2017, 8, 4879.
     DOI: 10.1039/c7sc00601b
   * J. Koopman and S. Grimme, ACS Omega 2019, 4, 12, 15120-15133.
     DOI: 10.1021/acsomega.9b02011
   
   for metadynamics refer to:
   * S. Grimme, J. Chem. Theory Comput., 2019, 155, 2847-2862
     DOI: 10.1021/acs.jctc.9b00143
   
   for SPH calculations refer to:
   * S. Spicher and S. Grimme, J. Chem. Theory Comput., 2021, 17, 1701-1714
     DOI: 10.1021/acs.jctc.0c01306
   
   with help from (in alphabetical order)
   P. Atkinson, C. Bannwarth, F. Bohle, G. Brandenburg, E. Caldeweyher
   M. Checinski, S. Dohm, S. Ehlert, S. Ehrlich, I. Gerasimov, C. Hölzer
   A. Katbashev, J. Koopman, C. Lavigne, S. Lehtola, F. März, M. Müller,
   F. Musil, H. Neugebauer, J. Pisarek, C. Plett, P. Pracht, F. Pultar,
   J. Seibert, P. Shushkov, S. Spicher, M. Stahn, M. Steiner, T. Strunk,
   J. Stückrath, T. Rose, and J. Unsleber
   
 * started run on 2026/04/17 at 12:14:10.905     

           -------------------------------------------------
          |                Calculation Setup                |
           -------------------------------------------------

          program call               : /usr/bin/xtb random_d1.70_009_m1_XTB.xyz --grad -c 0 -u 0 -P 1 --namespace random_d1.70_009_m1 --input random_d1.70_009_m1_XTB.input.tmp --acc 0.200000
          calculation namespace      : random_d1.70_009_m1
          coordinate file            : random_d1.70_009_m1_XTB.xyz
          omp threads                :                     1

   ID    Z sym.   atoms
    1    5 B      1-12

molecular fragmentation (1/2 indicates fragments):
111111221111
# atoms in fragment 1/2:    10     2
 fragment masses (1/2) :      108.11       21.62
CMA distance (Bohr)    :   3.411
constraining FC (au)   :  0.0500

           -------------------------------------------------
          |                 G F N 2 - x T B                 |
           -------------------------------------------------

        Reference                      10.1021/acs.jctc.8b01176
      * Hamiltonian:
        H0-scaling (s, p, d)           1.850000    2.230000    2.230000
        zeta-weighting                 0.500000
      * Dispersion:
        s8                             2.700000
        a1                             0.520000
        a2                             5.000000
[...]
    57. A(B   9,B   6,B  10)           40.58 -0.000074    0.06     40.64   
    58. A(B   4,B   6,B   5)           50.29 -0.000099    0.10     50.40   
    59. A(B   5,B   6,B   9)           61.10 -0.000028   -0.03     61.07   
    60. A(B   0,B   7,B   1)           77.01 -0.000099   -0.09     76.92   
    61. A(B   1,B   7,B  11)           76.63  0.000100   -0.03     76.60   
    62. A(B   1,B   7,B   8)           43.05 -0.000051   -0.04     43.01   
    63. A(B   4,B   7,B   8)          112.30 -0.000048   -0.07    112.23   
    64. A(B   0,B   7,B   8)          115.68 -0.000184   -0.06    115.61   
    65. A(B   0,B   7,B  11)          138.44 -0.000015   -0.19    138.26   
    66. A(B   8,B   7,B  11)           58.92  0.000193   -0.03     58.89   
    67. A(B   2,B   7,B   4)           69.35 -0.000078    0.00     69.35   
    68. A(B   0,B   7,B   4)           25.31  0.000062   -0.14     25.18   
    69. A(B   4,B   7,B  11)          113.90 -0.000056   -0.05    113.85   
    70. A(B   1,B   7,B   4)           69.26  0.000003   -0.02     69.23   
    71. A(B   0,B   7,B   2)           57.64 -0.000204    0.02     57.66   
    72. A(B   1,B   7,B   2)           43.39 -0.000041    0.01     43.40   
    73. A(B   2,B   7,B   8)           62.08 -0.000019   -0.01     62.07   
    74. A(B   2,B   7,B  11)          116.32  0.000130   -0.03    116.28   
    75. A(B   2,B   8,B  11)          114.56 -0.000070    0.00    114.57   
    76. A(B   1,B   8,B  11)          103.43 -0.000023    0.05    103.49   
    77. A(B   7,B   8,B  11)           60.12 -0.000067   -0.02     60.10   
    78. A(B   2,B   8,B   7)           58.97  0.000020   -0.03     58.94   
    79. A(B   1,B   8,B   7)           91.82  0.000012    0.06     91.89   
    80. A(B   1,B   8,B   2)           58.02 -0.000042    0.07     58.09   
    81. A(B   5,B   9,B   6)           52.77 -0.000008    0.00     52.78   
    82. A(B   4,B   9,B   6)          113.25  0.000056    0.03    113.28   
    83. A(B   1,B   9,B   6)          121.87  0.000033   -0.13    121.74   
    84. A(B   4,B   9,B   5)           83.66 -0.000036    0.08     83.74   
    85. A(B   1,B   9,B   5)          166.02  0.000016    0.05    166.07   
    86. A(B   1,B   9,B   4)           87.96  0.000053   -0.00     87.96   
    87. A(B   5,B   9,B  10)           52.83  0.000090    0.07     52.90   
    88. A(B   4,B   9,B  10)           35.39 -0.000128   -0.11     35.28   
    89. A(B   6,B   9,B  10)           98.77  0.000100   -0.10     98.66   
    90. A(B   1,B   9,B  10)          121.92 -0.000081    0.08    122.00   
    91. A(B   6,B  10,B   9)           40.65 -0.000026    0.04     40.69   
    92. A(B   5,B  10,B   6)           29.41 -0.000025    0.11     29.51   
    93. A(B   5,B  10,B   9)           61.15 -0.000014   -0.06     61.09   
    94. A(B   3,B  11,B   8)          122.46  0.000043    0.01    122.47   
    95. A(B   1,B  11,B   8)           37.90 -0.000100   -0.00     37.90   
    96. A(B   1,B  11,B   3)           90.19  0.000130    0.01     90.19   
    97. A(B   7,B  11,B   8)           60.96 -0.000126    0.05     61.01   
    98. A(B   3,B  11,B   7)          129.11  0.000066   -0.04    129.07   
    99. A(B   1,B  11,B   7)           64.12 -0.000113    0.06     64.19   
   100. D(B   2,B   1,B   0,B   7)    -76.13 -0.000126    0.18    -75.95   
   101. D(B  11,B   1,B   0,B   7)     20.55  0.000011    0.05     20.60   
   102. D(B   8,B   1,B   0,B   2)     57.81  0.000020   -0.08     57.73   
   103. D(B  11,B   1,B   0,B   2)     96.68  0.000137   -0.13     96.54   
   104. D(B   9,B   1,B   0,B   7)    107.83 -0.000128    0.18    108.01   
   105. D(B   9,B   1,B   0,B   2)   -176.04 -0.000002   -0.00   -176.05   
   106. D(B   8,B   1,B   0,B   7)    -18.32 -0.000106    0.10    -18.22   
   107. D(B   0,B   2,B   1,B   9)      4.76 -0.000010    0.03      4.79   
   108. D(B   8,B   2,B   0,B   7)     22.49 -0.000038    0.22     22.71   
   109. D(B   0,B   2,B   1,B   8)   -111.80 -0.000065   -0.05   -111.85   
   110. D(B   8,B   2,B   0,B   1)    -60.78  0.000011    0.06    -60.73   
   111. D(B   7,B   2,B   0,B   1)    -83.28  0.000049   -0.16    -83.44   
   112. D(B   8,B   2,B   1,B   9)    116.56  0.000055    0.09    116.65   
   113. D(B   8,B   2,B   1,B   0)    111.80  0.000065    0.05    111.85   
   114. D(B   0,B   2,B   1,B   7)    -60.72 -0.000087   -0.07    -60.79   
   115. D(B   1,B   2,B   0,B   7)     83.28 -0.000049    0.16     83.44   
   116. D(B   8,B   2,B   1,B   7)     51.08 -0.000022   -0.02     51.06   
   117. D(B   8,B   2,B   1,B  11)     36.13  0.000120   -0.01     36.12   
   118. D(B   0,B   2,B   1,B  11)    -75.67  0.000055   -0.06    -75.73   
   119. D(B   5,B   6,B   4,B   7)   -178.32 -0.000070    0.04   -178.28   
   120. D(B  10,B   6,B   4,B   9)    -77.60  0.000006   -0.17    -77.77   
   121. D(B   5,B   6,B   4,B   9)    -90.42 -0.000118    0.11    -90.30   
   122. D(B   4,B   6,B   5,B   9)     47.69 -0.000059    0.03     47.72   
   123. D(B   9,B   6,B   5,B  10)    -38.07  0.000104   -0.28    -38.35   
   124. D(B   4,B   6,B   5,B  10)      9.62  0.000045   -0.25      9.37   
   125. D(B  10,B   6,B   5,B   9)     38.07 -0.000104    0.28     38.35   
   126. D(B  10,B   6,B   4,B   7)   -165.50  0.000053   -0.24   -165.74   
   127. D(B   9,B   6,B   4,B   7)    -87.90  0.000047   -0.07    -87.97   
   128. D(B   8,B   7,B   0,B   1)     19.43  0.000052   -0.13     19.30   
   129. D(B   1,B   7,B   4,B   9)     30.97  0.000060   -0.02     30.95   
   130. D(B   0,B   7,B   4,B   9)    134.78 -0.000251   -0.11    134.67   
   131. D(B  11,B   7,B   0,B   2)    -94.38  0.000005   -0.09    -94.48   
   132. D(B   8,B   7,B   4,B   9)     31.59  0.000084   -0.05     31.53   
   133. D(B   8,B   7,B   4,B   6)     60.20  0.000090   -0.09     60.12   
   134. D(B   0,B   7,B   2,B   8)   -156.39 -0.000065    0.23   -156.16   
   135. D(B   8,B   7,B   1,B  11)     58.47  0.000162   -0.04     58.43   
   136. D(B   0,B   7,B   2,B   1)   -106.44 -0.000130    0.20   -106.23   
   137. D(B   8,B   7,B   2,B   0)    156.39  0.000065   -0.23    156.16   
   138. D(B  11,B   7,B   2,B   8)    -23.95 -0.000153    0.04    -23.91   
   139. D(B   8,B   7,B   2,B   1)     49.96 -0.000065   -0.03     49.93   
   140. D(B   0,B   7,B   1,B   8)    153.95 -0.000142    0.12    154.07   
   141. D(B   1,B   7,B   2,B   0)    106.44  0.000130   -0.20    106.23   
   142. D(B   0,B   7,B   1,B   2)     56.25 -0.000217    0.13     56.38   
   143. D(B  11,B   7,B   4,B   6)     -4.42 -0.000099   -0.02     -4.44   
   144. D(B  11,B   7,B   2,B   0)    132.45 -0.000089   -0.20    132.25   
   145. D(B  11,B   7,B   2,B   1)     26.01 -0.000219    0.01     26.02   
   146. D(B   8,B   7,B   1,B   9)    132.06  0.000059   -0.02    132.04   
   147. D(B   8,B   7,B   1,B   2)    -97.70 -0.000075    0.01    -97.69   
   148. D(B   8,B   7,B   1,B   0)   -153.95  0.000142   -0.12   -154.07   
   149. D(B  11,B   7,B   1,B   8)    -58.47 -0.000162    0.04    -58.43   
   150. D(B  11,B   7,B   1,B   0)    147.58 -0.000020   -0.08    147.50   
   151. D(B  11,B   7,B   4,B   9)    -33.03 -0.000104    0.01    -33.03   
   152. D(B  11,B   7,B   1,B   2)   -156.17 -0.000237    0.05   -156.12   
   153. D(B   2,B   7,B   0,B   1)     42.55 -0.000054    0.07     42.61   
   154. D(B  11,B   7,B   1,B   9)     73.59 -0.000103    0.02     73.61   
   155. D(B   4,B   7,B   0,B   1)    -68.75 -0.000259   -0.11    -68.86   
   156. D(B  11,B   7,B   0,B   1)    -51.84 -0.000049   -0.02    -51.86   
   157. D(B   0,B   7,B   4,B   6)    163.40 -0.000246   -0.14    163.26   
   158. D(B   8,B   7,B   0,B   2)    -23.12  0.000106   -0.20    -23.32   
   159. D(B   1,B   7,B   0,B   2)    -42.55  0.000054   -0.07    -42.61   
   160. D(B   2,B   8,B   1,B  11)   -110.78  0.000071    0.06   -110.72   
   161. D(B   2,B   8,B   1,B   9)   -114.91  0.000113    0.01   -114.90   
   162. D(B   2,B   8,B   1,B   0)    -34.70  0.000110   -0.04    -34.73   
   163. D(B   2,B   8,B   7,B   4)     49.55 -0.000086    0.06     49.61   
   164. D(B   2,B   8,B   7,B   1)     50.39 -0.000052    0.01     50.40   
   165. D(B   2,B   8,B   7,B   0)     22.04 -0.000149    0.21     22.25   
   166. D(B   1,B   8,B   7,B   4)     -0.84 -0.000034    0.05     -0.80   
   167. D(B   1,B   8,B   7,B   2)    -50.39  0.000052   -0.01    -50.40   
   168. D(B   1,B   8,B   7,B   0)    -28.35 -0.000096    0.20    -28.15   
   169. D(B   1,B   8,B   7,B  11)    104.47 -0.000025    0.01    104.48   
   170. D(B   7,B   8,B   2,B   0)    -23.08  0.000016   -0.23    -23.31   
   171. D(B  11,B   8,B   2,B   7)     23.89  0.000042   -0.06     23.83   
   172. D(B  11,B   8,B   2,B   1)    -90.90  0.000004   -0.12    -91.03   
   173. D(B  11,B   8,B   1,B   9)     -4.13  0.000042   -0.04     -4.18   
   174. D(B   1,B   8,B   2,B   0)     91.71  0.000054   -0.16     91.56   
   175. D(B  11,B   8,B   1,B   7)     59.67 -0.000064   -0.02     59.66   
   176. D(B  11,B   8,B   2,B   0)      0.81  0.000057   -0.28      0.53   
   177. D(B   2,B   8,B   7,B  11)    154.86 -0.000077    0.02    154.88   
   178. D(B  11,B   8,B   1,B   2)    110.78 -0.000071   -0.06    110.72   
   179. D(B  11,B   8,B   1,B   0)     76.08  0.000039   -0.09     75.99   
   180. D(B   2,B   8,B   1,B   7)    -51.10  0.000007    0.04    -51.06   
   181. D(B   1,B   8,B   2,B   7)    114.79  0.000038    0.07    114.86   
   182. D(B   5,B   9,B   6,B  10)    -27.75  0.000012   -0.25    -27.99   
   183. D(B   5,B   9,B   6,B   4)    -61.49  0.000125   -0.12    -61.61   
   184. D(B   4,B   9,B   6,B  10)     33.74 -0.000113   -0.12     33.62   
   185. D(B   1,B   9,B   6,B  10)    136.54  0.000017   -0.22    136.32   
   186. D(B   1,B   9,B   6,B   4)    102.80  0.000130   -0.10    102.70   
   187. D(B   1,B   9,B   6,B   5)    164.29  0.000005    0.03    164.32   
   188. D(B  10,B   9,B   5,B   6)   -144.73 -0.000075    0.41   -144.32   
   189. D(B   4,B   9,B   5,B   6)   -125.68 -0.000123    0.10   -125.58   
   190. D(B   4,B   9,B   5,B  10)     19.05 -0.000047   -0.31     18.74   
   191. D(B   1,B   9,B   5,B   6)    -72.13 -0.000083   -0.71    -72.84   
   192. D(B   1,B   9,B   5,B  10)     72.60 -0.000008    1.40     74.00   
   193. D(B  10,B   9,B   4,B   7)    152.27  0.000028   -0.39    151.88   
   194. D(B  10,B   9,B   4,B   6)     71.44 -0.000014   -0.27     71.17   
   195. D(B   5,B   9,B   4,B   7)    125.57 -0.000028   -0.05    125.53   
   196. D(B   5,B   9,B   4,B   6)     44.75 -0.000070    0.07     44.81   
   197. D(B   1,B   9,B   4,B   7)    -43.21 -0.000036    0.02    -43.19   
   198. D(B   1,B   9,B   4,B   6)   -124.04 -0.000077    0.14   -123.90   
   199. D(B   5,B   9,B   1,B  11)     36.47  0.000010    0.79     37.26   
   200. D(B   5,B   9,B   1,B   8)     39.06 -0.000009    0.79     39.85   
   201. D(B   6,B   9,B   5,B  10)    144.73  0.000075   -0.41    144.32   
   202. D(B   5,B   9,B   1,B   2)    -41.70 -0.000049    0.77    -40.93   
   203. D(B   5,B   9,B   1,B   0)    -38.80 -0.000061    0.81    -38.00   
   204. D(B   4,B   9,B   1,B   7)     52.15  0.000045    0.04     52.19   
   205. D(B   4,B   9,B   6,B   5)     61.49 -0.000125    0.12     61.61   
   206. D(B   4,B   9,B   1,B  11)     89.59  0.000041    0.03     89.62   
   207. D(B   4,B   9,B   1,B   8)     92.18  0.000022    0.03     92.21   
   208. D(B   4,B   9,B   1,B   2)     11.43 -0.000018    0.00     11.43   
   209. D(B   4,B   9,B   1,B   0)     14.32 -0.000030    0.04     14.36   
   210. D(B   6,B  10,B   9,B   5)     27.72 -0.000051    0.25     27.97   
   211. D(B   6,B  10,B   9,B   4)   -118.20 -0.000025   -0.19   -118.40   
   212. D(B   6,B  10,B   9,B   1)   -136.52 -0.000084    0.28   -136.24   
   213. D(B   5,B  10,B   9,B   6)    -27.72  0.000051   -0.25    -27.97   
   214. D(B   5,B  10,B   9,B   4)   -145.92  0.000027   -0.44   -146.36   
   215. D(B   5,B  10,B   9,B   1)   -164.24 -0.000033    0.03   -164.20   
   216. D(B   9,B  10,B   6,B   4)     76.41  0.000070   -0.05     76.37   
   217. D(B   9,B  10,B   6,B   5)   -123.92 -0.000092    0.40   -123.52   
   218. D(B   5,B  10,B   6,B   4)   -159.67  0.000162   -0.45   -160.11   
   219. D(B   5,B  10,B   6,B   9)    123.92  0.000092   -0.40    123.52   
   220. D(B   6,B  10,B   5,B   9)    -38.11  0.000066   -0.24    -38.35   
   221. D(B   9,B  10,B   5,B   6)     38.11 -0.000066    0.24     38.35   
   222. D(B   3,B  11,B   1,B   7)    134.39  0.000046   -0.11    134.27   
   223. D(B   3,B  11,B   1,B   9)     26.22  0.000025   -0.18     26.05   
   224. D(B   3,B  11,B   1,B   8)   -150.39 -0.000008   -0.08   -150.47   
   225. D(B   3,B  11,B   1,B   2)    151.19 -0.000105   -0.11    151.08   
   226. D(B   3,B  11,B   1,B   0)    113.69  0.000014   -0.18    113.52   
   227. D(B   7,B  11,B   8,B   1)    -84.29 -0.000007   -0.05    -84.34   
   228. D(B   3,B  11,B   8,B   2)     96.53 -0.000046    0.02     96.55   
   229. D(B   3,B  11,B   8,B   1)     35.84  0.000010   -0.08     35.76   
   230. D(B   1,B  11,B   8,B   7)     84.29  0.000007    0.05     84.34   
   231. D(B   3,B  11,B   7,B   2)    -85.11  0.000147   -0.10    -85.20   
   232. D(B   3,B  11,B   7,B   1)    -67.07 -0.000020   -0.08    -67.15   
   233. D(B   3,B  11,B   7,B   0)    -15.12 -0.000031   -0.08    -15.20   
   234. D(B   3,B  11,B   7,B   8)   -109.86  0.000047   -0.05   -109.92   
   235. D(B   1,B  11,B   7,B   4)     59.77  0.000099   -0.04     59.73   
   236. D(B   1,B  11,B   7,B   2)    -18.04  0.000168   -0.02    -18.05   
   237. D(B   1,B  11,B   8,B   2)     60.69 -0.000056    0.10     60.79   
   238. D(B   1,B  11,B   7,B   0)     51.95 -0.000010    0.00     51.95   
   239. D(B   1,B  11,B   7,B   8)    -42.79  0.000067    0.03    -42.77   
   240. D(B   8,B  11,B   1,B   9)    176.62  0.000033   -0.10    176.52   
   241. D(B   3,B  11,B   8,B   7)    120.13  0.000017   -0.02    120.10   
   242. D(B   8,B  11,B   1,B   2)    -58.42 -0.000097   -0.03    -58.45   
   243. D(B   8,B  11,B   1,B   0)    -95.91  0.000022   -0.10    -96.01   
    ----------------------------------------------------------------------------

Geometry step timings:
Preparation and reading OPT file:      0.000 s ( 0.229 %)
Internal coordinates            :      0.000 s ( 0.366 %)
B/P matrices and projection     :      0.004 s (27.696 %)
Hessian update/contruction      :      0.004 s (25.793 %)
Making the step                 :      0.005 s (33.149 %)
Converting the step to Cartesian:      0.000 s ( 2.436 %)
Storing new data                :      0.000 s ( 0.564 %)
Checking convergence            :      0.000 s ( 0.651 %)
Final printing                  :      0.001 s ( 9.104 %)
Total time                      :      0.016 s

Time for energy+gradient        :      0.052 s
Time for complete geometry iter :      0.070 s




    ----------------------------------------------------------------------------
                                  WARNING !!!
       The optimization did not converge but reached the maximum number of
       optimization cycles.
       Please check your results very carefully.
    ----------------------------------------------------------------------------



--------------------------------
SUGGESTED CITATIONS FOR THIS RUN
--------------------------------

Below you find a list of papers that are relevant to this ORCA run
We neither can nor want to force you to cite these papers, but we appreciate if you do
You receive ORCA, which is the product of decades of hard work by many enthusiastic individuals, for free
The only thing we kindly ask in return is that you cite our papers,
We deeply appreciate it, if you show your appreciation for ORCA by not just citing the generic ORCA reference.

Please note that relegating all ORCA citations to the supporting information does *not* help us.
SI sections are not indexed - citations you put there will not count into any citation statistics
But we need these citations in order to attract the funding resources that allow us to do what we are doing

Therefore, if you are a happy ORCA user, please consider citing a few of the papers listed below in the main body of your paper

In addition to the list printed below, the program has created the file random_d1.70_009_m1.bibtex that contains the list in bibtex format
You can import this file easily into all common literature databanks and citation aid programs

It goes without saying that in many instances, there are alternative algorithms to achieve similar
results as the ones you have gotten from ORCA. It is, of course, also the case that in some instances
ORCA just re-implements algorithms worked out by others. We are fully aware of that and we are also
fully appreciative of our colleagues work. Hence this citation list should not be read as indicating
that the listed papers, which are focused on our own work, are the only ones worth citing. It simply
meant to make it easier for users to cite ORCA specific papers. It is not a substitute for doing your
own literature research and citing the relevant literature in a scientifically appropriate manner.

List of essential papers. We consider these as the minimum necessary citations

  1. Bannwarth, C.; Ehlert, S.; Grimme, S.
     GFN2-xTB—An Accurate and Broadly Parametrized Self-Consistent Tight-Binding Quantum Chemical Method with Multipole Electrostatics and Density-Dependent Dispersion Contributions
     J. Chem. Theory Comput. 2019 15(3), 1652-1671
     doi.org/10.1021/acs.jctc.8b01176
  2. Neese, F.
     Software update: the ORCA program system, version 6.0
     WIRES Comput. Molec. Sci. 2025 15(1), e70019
     doi.org/10.1002/wcms.70019

List of papers to cite with high priority. The work reported in these papers was absolutely
necessary for this run to complete.
Our perspective: the developers of density functionals and basis sets usually get cited in chemistry papers
Good! But without the algorithms to do something with them, the functionals or basis sets would not do anything.
Hence, in our opinion, the algorithm design and method developments papers are equally worthy of getting cited

  1. Bannwarth, C.; Caldeweyher, E.; Ehlert, S.; Hansen, A.; Pracht, P.; Seibert, J.; Spicher, S.; Grimme, S.
     Extended tight-binding quantum chemistry methods
     WIRES Comput. Molec. Sci. 2020 11(2), e1493
     doi.org/10.1002/wcms.1493

List of suggested additional citations. These are papers that are important in the 'surrounding' of 
of this run, or papers that preceded the highly important papers. If you like your results we are grateful for a citation.

  1. Neese, F.
     The ORCA program system
     WIRES Comput. Molec. Sci. 2012 2(1), 73-78
     doi.org/10.1002/wcms.81
  2. Neese, F.
     Software update: the ORCA program system, version 4.0
     WIRES Comput. Molec. Sci. 2018 8(1), 1-6
     doi.org/10.1002/wcms.1327
  3. Neese, F.; Wennmohs, F.; Becker, U.; Riplinger, C.
     The ORCA quantum chemistry program package
     J. Chem. Phys. 2020 152(22), 224108
     doi.org/10.1063/5.0004608
  4. Neese, F.
     Software update: The ORCA program system—Version 5.0
     WIRES Comput. Molec. Sci. 2022 12(1), e1606
     doi.org/10.1002/wcms.1606

List of optional additional citations

  1. Neese, F.
     Approximate second-order SCF convergence for spin unrestricted wavefunctions
     Chem. Phys. Lett. 2000 325(1-3), 93-98
     doi.org/10.1016/s0009-2614(00)00662-x

Timings for individual modules:

Sum of individual times          ...        3.553 sec (=   0.059 min)
Geometry relaxation              ...        1.003 sec (=   0.017 min)  28.2 %
XTB module                       ...        2.550 sec (=   0.042 min)  71.8 %
                             ****ORCA TERMINATED NORMALLY****
TOTAL RUN TIME: 0 days 0 hours 0 minutes 4 seconds 43 msec
