
                                 *****************
                                 * O   R   C   A *
                                 *****************

                                            #,                                       
                                            ###                                      
                                            ####                                     
                                            #####                                    
                                            ######                                   
                                           ########,                                 
                                     ,,################,,,,,                         
                               ,,#################################,,                 
                          ,,##########################################,,             
                       ,#########################################, ''#####,          
                    ,#############################################,,   '####,        
                  ,##################################################,,,,####,       
                ,###########''''           ''''###############################       
              ,#####''   ,,,,##########,,,,          '''####'''          '####       
            ,##' ,,,,###########################,,,                        '##       
           ' ,,###''''                  '''############,,,                           
         ,,##''                                '''############,,,,        ,,,,,,###''
      ,#''                                            '''#######################'''  
     '                                                          ''''####''''         
             ,#######,   #######,   ,#######,      ##                                
            ,#'     '#,  ##    ##  ,#'     '#,    #''#        ,####,    ,#,          
            ##       ##  ##   ,#'  ##            #'  '#       #'       ,# #          
            ##       ##  #######   ##           ,######,      #####,      #          
            '#,     ,#'  ##    ##  '#,     ,#' ,#      #,     #,   #      #          
             '#######'   ##     ##  '#######'  #'      '#     '####' #    #          



                #########################################################
                #                        -***-                          #
                #          Department of theory and spectroscopy        #
                #                                                       #
                #                      Frank Neese                      #
                #                                                       #
                #     Directorship, Architecture, Infrastructure        #
                #                    SHARK, DRIVERS                     #
                #        Core code/Algorithms in most modules           #
                #                                                       #
                #        Max Planck Institute fuer Kohlenforschung      #
                #                Kaiser Wilhelm Platz 1                 #
                #                 D-45470 Muelheim/Ruhr                 #
                #                      Germany                          #
                #                                                       #
                #                  All rights reserved                  #
                #                        -***-                          #
                #########################################################


                         Program Version 6.1.1  -  RELEASE   -
                                (GIT: $487d211c$)
                          ($2025-11-21 10:33:24 +0100$)
                                                                         
                                  - NO-DMRG VERSION -                    
                                                                         


 With contributions from (in alphabetic order):
[Max-Planck-Institut fuer Kohlenforschung]                               
  Daniel Aravena         : Magnetic Suceptibility                        
  Michael Atanasov       : Ab Initio Ligand Field Theory (pilot matlab implementation)
  Alexander A. Auer      : GIAO ZORA, VPT2 properties, NMR spectrum      
  Ute Becker             : All parallelization in ORCA, NUMFREQ, NUMCALC 
  Giovanni Bistoni       : ED, misc. LED, open-shell LED, HFLD           
  Dmytro Bykov           : pre 5.0 version of the SCF Hessian            
  Marcos Casanova-Páez   : Triplet and SCS-CIS(D). UHF-(DLPNO)-IP/EA/STEOM-CCSD. UHF-CVS-IP/STEOM-CCSD   
  Vijay G. Chilkuri      : MRCI spin determinant printing, contributions to CSF-ICE 
  Pauline Colinet        : FMM embedding                                 
  Dipayan Datta          : RHF DLPNO-CCSD density                        
  Achintya Kumar Dutta   : EOM-CC, STEOM-CC                              
  Nicolas Foglia         : Exact transition moments, OPA infrastructure, MCD improvements    
  Dmitry Ganyushin       : Spin-Orbit,Spin-Spin,Magnetic field MRCI      
  Miquel Garcia-Rates    : C-PCM and meta-GGA Hessian, CCSD/C-PCM, Gaussian charge scheme 
  Tiago L. C. Gouveia    : GS-ROHF, GS-ROCIS                             
  Yang Guo               : DLPNO-NEVPT2, F12-NEVPT2, CIM, IAO-localization        
  Andreas Hansen         : Spin unrestricted coupled pair/coupled cluster methods 
  Ingolf Harden          : AUTO-CI MPn and infrastructure                
  Benjamin Helmich-Paris : MC-RPA, TRAH-(SCF,CASSCF), AVAS, COSX integrals, SCF dyn. polar., MC-PDFT, srDFT 
  Lee Huntington         : MR-EOM, pCC                                   
  Robert Izsak           : Overlap fitted RIJCOSX, COSX-SCS-MP3, EOM     
  Riya Kayal             : Wick's Theorem for AUTO-CI, AUTO-CI UHF-CCSDT 
  Emily Kempfer          : AUTO-CI RHF CISDT and CCSDT, approximate NEVPT4
  Christian Kollmar      : KDIIS, OOCD, Brueckner-CCSD(T), CCSD density, CASPT2, CASPT2-K, improved NEVPT2 
  Axel Koslowski         : Symmetry handling                             
  Simone Kossmann        : meta-GGA functionals, TD-DFT gradient, OOMP2, (MP2 Hessian; deprecated post 5.0) 
  Lucas Lang             : DCDCAS, Hyperfine gauge corrections, ICE-SOC+SSC
  Marvin Lechner         : AUTO-CI (C++ implementation), FIC-MRCC        
  Spencer Leger          : CASSCF response                               
  Dagmar Lenk            : GEPOL surface, SMD, ORCA-2-JSON               
  Dimitrios Liakos       : Extrapolation schemes; Compound Job, Property file
  Dimitrios Manganas     : Further ROCIS development; embedding schemes. LFT, Crystal Embedding 
  Dimitrios Pantazis     : SARC Basis sets                               
  Anastasios Papadopoulos: AUTO-CI, single reference methods and gradients 
  Taras Petrenko         : pre 6.0 DFT Hessian and TD-DFT gradient,  ECA, NRVS 
  Petra Pikulova         : Analytic Raman intensities                    
  Peter Pinski           : DLPNO-MP2, DLPNO-MP2 Gradient                 
  Shashank Vittal Rao    : ES-AILFT, MagRelax                            
  Christoph Reimann      : Effective Core Potentials                     
  Marius Retegan         : Local ZFS, SOC                                
  Christoph Riplinger    : Optimizer, TS searches, QM/MM, DLPNO-CCSD(T), (RO)-DLPNO pert. Triples 
  Michael Roemelt        : Original ROCIS implementation, recursive CI coupling coefficients
  Masaaki Saitow         : Open-shell DLPNO-CCSD energy and density      
  Barbara Sandhoefer     : DKH picture change effects                    
  Yorick L. A. Schmerwitz: GMF and freeze-and-release deltaSCF, NEB S-IDPP initial path                    
  Kantharuban Sivalingam : CASSCF convergence/infrastructure, NEVPT2, NEVPT3, NEVPT4(SD), FIC-MRCI and CEPA variants
  Bernardo de Souza      : ESD, SOC TD-DFT                               
  Georgi L. Stoychev     : AutoAux, RI-MP2 NMR, DLPNO-MP2 response, X2C  
  Van Anh Tran           : RI-MP2 g-tensors                              
  Willem Van den Heuvel  : Paramagnetic NMR                              
  Zikuan Wang            : NOTCH, Electric field optimization            
  Frank Wennmohs         : Technical directorship and infrastructure     
  Hang Xu                : AUTO-CI-Response properties                   
                                                                         
[FACCTs GmbH]                                                            
  Markus Bursch, Nicolas Foglia, Miquel Garcia-Rates, Ingolf Harden, Hagen Neugebauer, Anastasios Papadopoulos, 
  Christoph Riplinger, Bernardo de Souza, Georgi L. Stoychev                                                    
                                                                 
  APM, various basis sets, CI-OPT, improved COSX, DLPNO-Multilevel,           
  DOCKER, DRACO, updates on ESD, Fragmentator, GOAT, IRC, LR-CPCM, L-BFGS, MBIS, meta-GGA TD-DFT gradient, ML-optimized integration grids, 
  MM, NACMEs, nearIR, NEB, NEB-TS, NL-DFT gradient (VV10), 2- and 3-layer-ONIOM, interface openCOSMO-RS, QMMM,   
  Crystal-QMMM, RESP, rigid body optimization, SF, symmetry and pop. for TD-DFT, various functionals, SOLVATOR                                   
                                                                         
[Other institutions]                                                     
  V. Asgeirsson          : NEB                                           
  Christoph Bannwarth    : sTDA-DFT, sTD-DFT, PBEh-3c, B97-3c, D3        
  Giovanni Bistoni       : ETS/NOCV, ADLD/ADEX, COVALED                  
  Martin Brehm           : Molecular dynamics                            
  Ronald Cardenas        : ETS/NOCV                                      
  Martina Colucci        : COVALED                                       
  Sebastian Ehlert       : rSCAN, r2SCAN, r2SCAN-3c, D4, dhf basis sets  
  Marvin Friede          : D4 for Fr, Ra, Ac-Lr                          
  Lars Goerigk           : TD-DFT with DH, B97 family of functionals     
  Stefan Grimme          : VdW corrections, initial TS optimization, DFT functionals, gCP, sTDA/sTD-DF 
  Waldemar Hujo          : DFT-NL                                        
  H. Jonsson             : NEB                                           
  Holger Kruse           : gCP                                           
  Marcel Mueller         : wB97X-3c, vDZP basis set                      
  Hagen Neugebauer       : wr2SCAN, Native XTB                           
  Gianluca Regni         : ADLD/ADEX                                     
  Tobias Risthaus        : pre 6.0 range-separated hybrid DFT and stability analysis
  Lukas Wittmann         : regularized MP2, r2SCAN double-hybrids, wr2SCAN        
                                                                         
We gratefully acknowledge several colleagues who have allowed us to      
interface, adapt or use parts of their codes:                            
  Ed Valeev, F. Pavosevic, A. Kumar             : LibInt (2-el integral package), F12 methods 
  Garnet Chan, S. Sharma, J. Yang, R. Olivares  : DMRG                   
  Ulf Ekstrom                                   : XCFun DFT Library      
  Mihaly Kallay                                 : mrcc  (arbitrary order and MRCC methods)
  Frank Weinhold                                : gennbo (NPA and NBO analysis)           
  Simon Mueller                                 : openCOSMO-RS                            
  Christopher J. Cramer and Donald G. Truhlar   : smd solvation model                     
  S Lehtola, MJT Oliveira, MAL Marques          : LibXC Library                           
  Liviu Ungur et al                             : ANISO software                          


 Your calculation uses the libint2 library for the computation of 2-el integrals
 For citations please refer to: http://libint.valeyev.net

 Your ORCA version has been built with support for libXC version: 7.0.0
 For citations please refer to: https://libxc.gitlab.io

 This ORCA versions uses:
   CBLAS   interface :  Fast vector & matrix operations
   LAPACKE interface :  Fast linear algebra routines
   SCALAPACK package :  Parallel linear algebra routines
   Shared memory     :  Shared parallel matrices
   BLAS/LAPACK       :  OpenBLAS 0.3.29  USE64BITINT DYNAMIC_ARCH NO_AFFINITY Zen SINGLE_THREADED
        Core in use  :  Zen
   Copyright (c) 2011-2014, The OpenBLAS Project


  ***********************************
  * Starting time: Fri Apr 17 12:14:14 2026
  * Host name:     vmi3233575
  * Process ID:    333327
  * Working dir.:  /root/orca_b12_vps_pack/jobs/01_xtb/mult_1
  ***********************************

NOTE: MaxCore=500 MB was set to SCF,MP2,MDCI,CIPSI,MRCI,RASCI and CIS
      => If you want to overwrite this, your respective input block should be placed after the MaxCore statement


***************************************
The coordinates will be read from file: ../../../starts/random_d1.90_007.xyz
***************************************


Your calculation utilizes the semiempirical GFN2-xTB method
Please cite in your paper:
Bannwarth, C.; Ehlert S.; Grimme, S. J. Chem. Theory Comput. 2019, 15, 1652.
   

================================================================================

================================================================================
                                        WARNINGS
                       Please study these warnings very carefully!
================================================================================


WARNING: Geometry Optimization
  ===> : Switching off AutoStart
         For restart on a previous wavefunction, please use MOREAD

WARNING: Found dipole moment calculation with XTB calculation
  ===> : Switching off dipole moment calculation

Environment variable XTBEXE for xtb has been set!

================================================================================
                                       INPUT FILE
================================================================================
NAME = random_d1.90_007_m1.inp
|  1> ! GFN2-xTB TightSCF TightOpt
|  2> 
|  3> %pal
|  4>   nprocs 1
|  5> end
|  6> 
|  7> %maxcore 500
|  8> 
|  9> * xyzfile 0 1 ../../../starts/random_d1.90_007.xyz
| 10> 
| 11>                          ****END OF INPUT****
================================================================================

                       *****************************
                       * Geometry Optimization Run *
                       *****************************

Geometry optimization settings:
Update method            Update   .... BFGS
Choice of coordinates    CoordSys .... (2022) Redundant Internals
Initial Hessian          InHess   .... Almloef's Model
Max. no of cycles        MaxIter  .... 50

Convergence Tolerances:
Energy Change            TolE     ....  1.0000e-06 Eh
Max. Gradient            TolMAXG  ....  1.0000e-04 Eh/bohr
RMS Gradient             TolRMSG  ....  3.0000e-05 Eh/bohr
Max. Displacement        TolMAXD  ....  1.0000e-03 bohr
RMS Displacement         TolRMSD  ....  6.0000e-04 bohr
Strict Convergence                .... False

------------------------------------------------------------------------------
                        ORCA OPTIMIZATION COORDINATE SETUP
------------------------------------------------------------------------------

The optimization will be done in redundant internal coordinates (2022)
Making redundant internal coordinates   ...  (2022 redundants) done
Evaluating the initial hessian          ...  (Almloef) done
Evaluating the coordinates              ...  done
Calculating the B-matrix                .... done
Calculating the G-matrix                .... done
The number of degrees of freedom        ....  250

    -----------------------------------------------------------------
                    Redundant Internal Coordinates


    -----------------------------------------------------------------
         Definition                    Initial Value    Approx d2E/dq
    -----------------------------------------------------------------
      1. B(B   1,B   0)                  3.3569         0.010000   
      2. B(B   3,B   0)                  2.2581         0.034542   
      3. B(B   3,B   1)                  2.7955         0.010000   
      4. B(B   4,B   0)                  1.4076         0.785881   
      5. B(B   5,B   1)                  3.5801         0.010000   
      6. B(B   5,B   4)                  1.7690         0.208299   
      7. B(B   6,B   2)                  2.2862         0.031157   
      8. B(B   6,B   0)                  1.8322         0.165118   
      9. B(B   6,B   4)                  1.2645         1.329207   
     10. B(B   7,B   0)                  2.7785         0.010000   
     11. B(B   7,B   3)                  2.6180         0.010000   
     12. B(B   7,B   1)                  3.3253         0.010000   
     13. B(B   8,B   1)                  3.5455         0.010000   
     14. B(B   8,B   2)                  2.4149         0.019421   
     15. B(B   9,B   0)                  2.8010         0.010000   
     16. B(B   9,B   7)                  1.7638         0.212311   
     17. B(B   9,B   2)                  1.7048         0.263751   
     18. B(B   9,B   1)                  2.7637         0.010000   
     19. B(B   9,B   8)                  2.5744         0.010808   
     20. B(B  10,B   0)                  1.3239         1.068657   
     21. B(B  11,B   6)                  1.7809         0.199433   
     22. B(B  11,B   5)                  1.7798         0.200197   
     23. B(B  11,B   4)                  1.3674         0.910771   
     24. A(B   6,B   0,B  10)           91.1242         0.390885   
     25. A(B   4,B   0,B  10)          110.0851         0.518733   
     26. A(B   7,B   0,B  10)           92.5614         0.226452   
     27. A(B   1,B   0,B   9)           52.3920         0.113883   
     28. A(B   1,B   0,B  10)          157.3743         0.173975   
     29. A(B   1,B   0,B   6)           97.6465         0.144683   
     30. A(B   1,B   0,B   7)           64.8389         0.114353   
     31. A(B   3,B   0,B   7)           61.6177         0.152212   
     32. A(B   1,B   0,B   4)           90.3235         0.168264   
     33. A(B   4,B   0,B   7)          143.3231         0.217216   
     34. A(B   3,B   0,B   4)          126.8825         0.286626   
     35. A(B   3,B   0,B   9)           84.7225         0.151039   
     36. A(B   7,B   0,B   9)           36.8548         0.129249   
     37. A(B   6,B   0,B   9)           77.6717         0.177399   
     38. A(B   4,B   0,B   6)           43.5338         0.370598   
     39. A(B   6,B   0,B   7)          110.4118         0.179071   
     40. A(B   1,B   0,B   3)           55.6573         0.128078   
     41. A(B   3,B   0,B   6)          153.2973         0.227831   
     42. A(B   9,B   0,B  10)          110.1203         0.223902   
     43. A(B   4,B   0,B   9)          106.7038         0.214836   
     44. A(B   3,B   0,B  10)          113.9139         0.300864   
     45. A(B   3,B   1,B   7)           49.7270         0.114661   
     46. A(B   7,B   1,B   9)           32.0164         0.115349   
     47. A(B   3,B   1,B   9)           76.2527         0.129931   
     48. A(B   5,B   1,B   9)           92.2687         0.110319   
     49. A(B   0,B   1,B   8)           78.6838         0.102398   
     50. A(B   0,B   1,B   5)           45.0950         0.102019   
     51. A(B   3,B   1,B   5)           65.3103         0.109762   
     52. A(B   5,B   1,B   8)           89.7155         0.100129   
     53. A(B   0,B   1,B   3)           41.8319         0.113996   
     54. A(B   3,B   1,B   8)          116.7211         0.110367   
     55. A(B   8,B   1,B   9)           46.1314         0.110940   
     56. A(B   0,B   1,B   7)           49.1373         0.105091   
     57. A(B   0,B   1,B   9)           53.4068         0.114666   
     58. A(B   7,B   1,B   8)           78.1396         0.102755   
     59. A(B   5,B   1,B   7)           94.1097         0.102365   
     60. A(B   6,B   2,B   9)           96.4699         0.239795   
     61. A(B   6,B   2,B   8)           96.8630         0.172553   
     62. A(B   8,B   2,B   9)           75.1493         0.224495   
     63. A(B   0,B   3,B   7)           69.0202         0.161232   
     64. A(B   1,B   3,B   7)           75.7152         0.135202   
     65. A(B   0,B   3,B   1)           82.5108         0.151321   
     66. A(B   0,B   4,B   6)           86.4073         0.540487   
     67. A(B   6,B   4,B  11)           85.0672         0.555813   
     68. A(B   5,B   4,B  11)           67.7549         0.395876   
     69. A(B   0,B   4,B  11)          151.8352         0.503462   
     70. A(B   5,B   4,B   6)          151.7183         0.423290   
     71. A(B   0,B   4,B   5)          113.7697         0.385801   
     72. A(B   4,B   5,B  11)           45.3253         0.306793   
     73. A(B   1,B   5,B  11)           84.6433         0.137313   
     74. A(B   1,B   5,B   4)           77.9559         0.137749   
     75. A(B   4,B   6,B  11)           49.9069         0.420015   
     76. A(B   0,B   6,B  11)           96.3000         0.295458   
     77. A(B   2,B   6,B  11)          128.8660         0.230550   
     78. A(B   2,B   6,B   4)          135.6157         0.306453   
     79. A(B   0,B   6,B   2)           94.5345         0.224628   
     80. A(B   0,B   6,B   4)           50.0589         0.406167   
     81. A(B   0,B   7,B   9)           72.2669         0.184344   
     82. A(B   0,B   7,B   1)           66.0238         0.115028   
     83. A(B   1,B   7,B   3)           54.5577         0.118742   
     84. A(B   1,B   7,B   9)           56.1719         0.149512   
     85. A(B   3,B   7,B   9)          101.3398         0.197950   
     86. A(B   0,B   7,B   3)           49.3622         0.135863   
     87. A(B   2,B   8,B   9)           39.7977         0.154749   
     88. A(B   1,B   8,B   9)           50.7102         0.114681   
     89. A(B   1,B   8,B   2)           84.0229         0.118324   
     90. A(B   2,B   9,B   7)          119.7943         0.321820   
     91. A(B   1,B   9,B   8)           83.1584         0.138194   
     92. A(B   0,B   9,B   1)           74.2011         0.129746   
     93. A(B   1,B   9,B   7)           91.8117         0.185520   
     94. A(B   1,B   9,B   2)          130.1400         0.190378   
     95. A(B   0,B   9,B   8)          108.9997         0.136693   
     96. A(B   7,B   9,B   8)          174.7391         0.201977   
     97. A(B   2,B   9,B   8)           65.0530         0.207663   
     98. A(B   0,B   9,B   7)           70.8783         0.182575   
     99. A(B   0,B   9,B   2)           80.9288         0.187284   
    100. A(B   4,B  11,B   5)           66.9197         0.393133   
    101. A(B   5,B  11,B   6)          111.5554         0.304659   
    102. A(B   4,B  11,B   6)           45.0259         0.392869   
    103. D(B   3,B   1,B   0,B   4)    136.3062         0.010000   
    104. D(B   3,B   1,B   0,B   7)    -71.6319         0.010000   
    105. D(B   9,B   1,B   0,B   4)   -111.0064         0.010000   
    106. D(B   3,B   1,B   0,B   6)    179.3589         0.010000   
    107. D(B   9,B   1,B   0,B   7)     41.0554         0.010000   
    108. D(B   9,B   1,B   0,B  10)     43.9824         0.010000   
    109. D(B   9,B   1,B   0,B   6)    -67.9537         0.010000   
    110. D(B   3,B   1,B   0,B   9)   -112.6874         0.010000   
    111. D(B   9,B   1,B   0,B   3)    112.6874         0.010000   
    112. D(B   3,B   1,B   0,B  10)    -68.7050         0.010000   
    113. D(B   7,B   1,B   0,B   4)   -152.0619         0.010000   
    114. D(B   7,B   3,B   0,B   9)    -30.2942         0.010000   
    115. D(B   7,B   3,B   0,B  10)     79.3961         0.010000   
    116. D(B   7,B   3,B   0,B   1)    -77.5185         0.010000   
    117. D(B   7,B   3,B   1,B   0)     70.1737         0.010000   
    118. D(B   7,B   3,B   1,B   8)     43.2727         0.010000   
    119. D(B   1,B   3,B   0,B  10)    156.9146         0.010000   
    120. D(B   7,B   3,B   0,B   4)   -137.2456         0.010000   
    121. D(B   7,B   3,B   1,B   9)     20.4789         0.010000   
    122. D(B   0,B   3,B   1,B   7)    -70.1737         0.010000   
    123. D(B   1,B   3,B   0,B   6)     -1.4142         0.010000   
    124. D(B   0,B   3,B   1,B   5)     49.3569         0.010000   
    125. D(B   0,B   3,B   1,B   8)    -26.9010         0.010000   
    126. D(B   7,B   3,B   0,B   6)    -78.9327         0.010000   
    127. D(B   0,B   3,B   1,B   9)    -49.6948         0.010000   
    128. D(B   1,B   3,B   0,B   4)    -59.7271         0.010000   
    129. D(B   5,B   4,B   0,B   6)   -159.4711         0.040719   
    130. D(B   5,B   4,B   0,B  10)    131.2939         0.040719   
    131. D(B   5,B   4,B   0,B   7)   -103.9112         0.040719   
    132. D(B   5,B   4,B   0,B   3)    -13.1919         0.040719   
    133. D(B   5,B   4,B   0,B   9)   -109.2254         0.040719   
    134. D(B   6,B   4,B   0,B   7)     55.5599         0.040719   
    135. D(B   6,B   4,B   0,B  10)    -69.2350         0.040719   
    136. D(B   6,B   4,B   0,B   3)    146.2792         0.040719   
    137. D(B   5,B   4,B   0,B   1)    -58.6792         0.040719   
    138. D(B   1,B   5,B   4,B   6)    -77.3933         0.010000   
    139. D(B   1,B   5,B   4,B   0)     54.9879         0.010000   
    140. D(B  11,B   5,B   4,B   6)     17.0065         0.010000   
    141. D(B   4,B   5,B   1,B   8)     47.8679         0.010000   
    142. D(B   4,B   5,B   1,B   0)    -26.3430         0.010000   
    143. D(B   4,B   5,B   1,B   7)    -30.2196         0.010000   
    144. D(B   4,B   5,B   1,B   3)    -71.9456         0.010000   
    145. D(B  11,B   5,B   1,B   3)   -117.3537         0.010000   
    146. D(B  11,B   5,B   1,B   9)    -43.6120         0.010000   
    147. D(B   4,B   5,B   1,B   9)      1.7961         0.010000   
    148. D(B   1,B   5,B   4,B  11)    -94.3998         0.010000   
    149. D(B  11,B   5,B   4,B   0)    149.3877         0.010000   
    150. D(B   0,B   6,B   4,B   5)    137.3633         0.110006   
    151. D(B   4,B   6,B   2,B   8)    -74.9777         0.010000   
    152. D(B   4,B   6,B   2,B   9)      0.7720         0.010000   
    153. D(B  11,B   6,B   0,B   7)   -127.9344         0.010000   
    154. D(B  11,B   6,B   0,B   3)    -60.8205         0.010000   
    155. D(B  11,B   6,B   0,B  10)    138.9130         0.010000   
    156. D(B   0,B   6,B   2,B   8)   -107.8702         0.010000   
    157. D(B  11,B   6,B   0,B   4)     20.3564         0.010000   
    158. D(B  11,B   6,B   2,B   9)     69.7263         0.010000   
    159. D(B   4,B   6,B   0,B   1)    -82.3549         0.010000   
    160. D(B   4,B   6,B   0,B   9)   -131.0851         0.010000   
    161. D(B   4,B   6,B   0,B   7)   -148.2908         0.010000   
    162. D(B   0,B   6,B   4,B  11)    153.1298         0.110006   
    163. D(B   0,B   6,B   2,B   9)    -32.1204         0.010000   
    164. D(B   4,B   6,B   0,B  10)    118.5566         0.010000   
    165. D(B   4,B   6,B   0,B   3)    -81.1768         0.010000   
    166. D(B   2,B   6,B   4,B   5)     92.4455         0.110006   
    167. D(B   2,B   6,B   4,B   0)    -44.9178         0.110006   
    168. D(B  11,B   6,B   4,B   5)    -15.7665         0.110006   
    169. D(B  11,B   6,B   4,B   0)   -153.1298         0.110006   
    170. D(B   1,B   7,B   3,B   0)     87.3397         0.010000   
    171. D(B   9,B   7,B   3,B   1)    -32.8949         0.010000   
    172. D(B   9,B   7,B   3,B   0)     54.4449         0.010000   
    173. D(B   3,B   7,B   1,B   5)    -52.4281         0.010000   
    174. D(B   3,B   7,B   1,B   8)   -141.2720         0.010000   
    175. D(B   3,B   7,B   1,B   0)    -56.0584         0.010000   
    176. D(B   3,B   7,B   1,B   9)   -140.1326         0.010000   
    177. D(B   9,B   7,B   1,B   5)     87.7045         0.010000   
    178. D(B   9,B   7,B   1,B   8)     -1.1394         0.010000   
    179. D(B   9,B   7,B   1,B   0)     84.0742         0.010000   
    180. D(B   9,B   7,B   1,B   3)    140.1326         0.010000   
    181. D(B   3,B   7,B   0,B   9)    123.1265         0.010000   
    182. D(B   3,B   7,B   0,B  10)   -115.9151         0.010000   
    183. D(B   3,B   7,B   0,B   6)    151.9300         0.010000   
    184. D(B   9,B   7,B   0,B   1)    -60.1684         0.010000   
    185. D(B   9,B   7,B   0,B   3)   -123.1265         0.010000   
    186. D(B   9,B   7,B   0,B  10)    120.9584         0.010000   
    187. D(B   9,B   7,B   0,B   6)     28.8034         0.010000   
    188. D(B   0,B   7,B   3,B   1)    -87.3397         0.010000   
    189. D(B   9,B   7,B   0,B   4)     -8.5052         0.010000   
    190. D(B   3,B   7,B   0,B   4)    114.6213         0.010000   
    191. D(B   1,B   8,B   2,B   6)     65.2536         0.010000   
    192. D(B   1,B   8,B   2,B   9)    -29.6513         0.010000   
    193. D(B   9,B   8,B   2,B   6)     94.9049         0.010000   
    194. D(B   9,B   8,B   1,B   7)      0.8379         0.010000   
    195. D(B   9,B   8,B   1,B   3)    -31.4658         0.010000   
    196. D(B   2,B   8,B   1,B   5)    -69.2704         0.010000   
    197. D(B   2,B   8,B   1,B   0)    -25.2378         0.010000   
    198. D(B   2,B   8,B   1,B   7)     24.9891         0.010000   
    199. D(B   2,B   8,B   1,B   3)     -7.3145         0.010000   
    200. D(B   2,B   8,B   1,B   9)     24.1512         0.010000   
    201. D(B   2,B   9,B   7,B   1)   -139.5819         0.010000   
    202. D(B   2,B   9,B   7,B   0)    -66.9957         0.010000   
    203. D(B   2,B   9,B   7,B   3)   -107.3985         0.010000   
    204. D(B   8,B   9,B   2,B   6)    -95.4137         0.010000   
    205. D(B   0,B   9,B   2,B   8)    115.9689         0.010000   
    206. D(B   0,B   9,B   2,B   6)     20.5552         0.010000   
    207. D(B   7,B   9,B   2,B   6)     82.2824         0.010000   
    208. D(B   7,B   9,B   1,B   5)    -94.1246         0.010000   
    209. D(B   7,B   9,B   1,B   8)    178.4532         0.010000   
    210. D(B   7,B   9,B   1,B   0)    -69.5398         0.010000   
    211. D(B   7,B   9,B   1,B   3)    -30.2318         0.010000   
    212. D(B   2,B   9,B   1,B   5)     38.4830         0.010000   
    213. D(B   2,B   9,B   1,B   8)    -48.9392         0.010000   
    214. D(B   2,B   9,B   1,B   0)     63.0678         0.010000   
    215. D(B   2,B   9,B   1,B   7)    132.6076         0.010000   
    216. D(B   2,B   9,B   1,B   3)    102.3758         0.010000   
    217. D(B   7,B   9,B   0,B   3)     47.7259         0.010000   
    218. D(B   7,B   9,B   0,B  10)    -65.8341         0.010000   
    219. D(B   7,B   9,B   0,B   6)   -152.4701         0.010000   
    220. D(B   7,B   9,B   2,B   8)    177.6961         0.010000   
    221. D(B   7,B   9,B   0,B   4)    174.7079         0.010000   
    222. D(B   2,B   9,B   0,B   1)   -136.3547         0.010000   
    223. D(B   2,B   9,B   0,B   7)    126.0095         0.010000   
    224. D(B   1,B   9,B   2,B   6)    -39.7561         0.010000   
    225. D(B   2,B   9,B   0,B   3)    173.7354         0.010000   
    226. D(B   2,B   9,B   0,B  10)     60.1755         0.010000   
    227. D(B   2,B   9,B   0,B   6)    -26.4605         0.010000   
    228. D(B   0,B   9,B   7,B   3)    -40.4028         0.010000   
    229. D(B   2,B   9,B   0,B   4)    -59.2825         0.010000   
    230. D(B   1,B   9,B   8,B   2)   -140.5253         0.010000   
    231. D(B   0,B   9,B   8,B   1)     70.6508         0.010000   
    232. D(B   0,B   9,B   8,B   2)    -69.8745         0.010000   
    233. D(B   7,B   9,B   8,B   1)    -17.1124         0.010000   
    234. D(B   7,B   9,B   8,B   2)   -157.6377         0.010000   
    235. D(B   2,B   9,B   8,B   1)    140.5253         0.010000   
    236. D(B   8,B   9,B   7,B   0)     89.5817         0.010000   
    237. D(B   8,B   9,B   7,B   3)     49.1790         0.010000   
    238. D(B   0,B   9,B   7,B   1)    -72.5862         0.010000   
    239. D(B   5,B  11,B   6,B   2)   -113.5145         0.010000   
    240. D(B   5,B  11,B   6,B   4)      7.9080         0.010000   
    241. D(B   5,B  11,B   6,B   0)    -12.4958         0.010000   
    242. D(B   4,B  11,B   6,B   2)   -121.4225         0.010000   
    243. D(B   4,B  11,B   6,B   0)    -20.4038         0.010000   
    244. D(B   6,B  11,B   5,B   1)     72.2719         0.010000   
    245. D(B   6,B  11,B   5,B   4)     -6.0732         0.010000   
    246. D(B   4,B  11,B   5,B   1)     78.3451         0.010000   
    247. D(B   6,B  11,B   4,B   5)    172.0046         0.043746   
    248. D(B   6,B  11,B   4,B   0)     72.8752         0.043746   
    249. D(B   5,B  11,B   4,B   6)   -172.0046         0.043746   
    250. D(B   5,B  11,B   4,B   0)    -99.1293         0.043746   
    -----------------------------------------------------------------

Number of atoms                         .... 12
Number of degrees of freedom            .... 250


         *************************************************************
         *                GEOMETRY OPTIMIZATION CYCLE   1            *
         *************************************************************
---------------------------------
CARTESIAN COORDINATES (ANGSTROEM)
---------------------------------
  B     0.162652   -0.400145    1.107023
  B    -0.141511    2.541106   -0.482030
  B     1.001183   -1.173942   -1.711531
  B     0.889044    1.573344    1.929700
  B    -1.159225   -0.734618    0.757744
  B    -2.365834    0.415959    1.349064
  B    -0.653153   -1.445774   -0.157199
  B     2.532005    0.654551    0.110176
  B    -0.236766    0.268075   -3.201373
  B     1.438621    0.408297   -1.251779
  B     0.778120   -1.454347    1.619427
  B    -2.245136   -0.652505   -0.069223

----------------------------
CARTESIAN COORDINATES (A.U.)
----------------------------
  NO LB    ZA    FRAG    MASS        X           Y           Z
   0 B   5.0000    0    10.810    0.307368   -0.756165    2.091970
   1 B   5.0000    0    10.810   -0.267417    4.801995   -0.910905
   2 B   5.0000    0    10.810    1.891962   -2.218430   -3.234325
   3 B   5.0000    0    10.810    1.680049    2.973190    3.646604
   4 B   5.0000    0    10.810   -2.190617   -1.388227    1.431928
   5 B   5.0000    0    10.810   -4.470779    0.786049    2.549362
   6 B   5.0000    0    10.810   -1.234279   -2.732118   -0.297063
   7 B   5.0000    0    10.810    4.784795    1.236922    0.208202
   8 B   5.0000    0    10.810   -0.447423    0.506588   -6.049718
   9 B   5.0000    0    10.810    2.718600    0.771569   -2.365519
  10 B   5.0000    0    10.810    1.470434   -2.748318    3.060274
  11 B   5.0000    0    10.810   -4.242692   -1.233055   -0.130812

      -----------------------------------------------------------      
     |                   =====================                   |     
     |                           x T B                           |     
     |                   =====================                   |     
     |                         S. Grimme                         |     
     |          Mulliken Center for Theoretical Chemistry        |     
     |                    University of Bonn                     |     
      -----------------------------------------------------------      

   * xtb version 6.6.1 (unknown) compiled by 'builduser@buildhost' on 2023-08-07

   xtb is free software: you can redistribute it and/or modify it under
   the terms of the GNU Lesser General Public License as published by
   the Free Software Foundation, either version 3 of the License, or
   (at your option) any later version.
   
   xtb is distributed in the hope that it will be useful,
   but WITHOUT ANY WARRANTY; without even the implied warranty of
   MERCHANTABILITY or FITNESS FOR A PARTICULAR PURPOSE.  See the
   GNU Lesser General Public License for more details.
   
   Cite this work as:
   * C. Bannwarth, E. Caldeweyher, S. Ehlert, A. Hansen, P. Pracht,
     J. Seibert, S. Spicher, S. Grimme, WIREs Comput. Mol. Sci., 2020, 11,
     e01493. DOI: 10.1002/wcms.1493
   
   for GFN2-xTB:
   * C. Bannwarth, S. Ehlert and S. Grimme., J. Chem. Theory Comput., 2019,
     15, 1652-1671. DOI: 10.1021/acs.jctc.8b01176
   for GFN1-xTB:
   * S. Grimme, C. Bannwarth, P. Shushkov, J. Chem. Theory Comput., 2017,
     13, 1989-2009. DOI: 10.1021/acs.jctc.7b00118
   for GFN0-xTB:
   * P. Pracht, E. Caldeweyher, S. Ehlert, S. Grimme, ChemRxiv, 2019, preprint.
     DOI: 10.26434/chemrxiv.8326202.v1
   for GFN-FF:
   * S. Spicher and S. Grimme, Angew. Chem. Int. Ed., 2020, 59, 15665-15673.
     DOI: 10.1002/anie.202004239
   
   for ALPB and GBSA implicit solvation:
   * S. Ehlert, M. Stahn, S. Spicher, S. Grimme, J. Chem. Theory Comput.,
     2021, 17, 4250-4261. DOI: 10.1021/acs.jctc.1c00471
   
   for DFT-D4:
   * E. Caldeweyher, C. Bannwarth and S. Grimme, J. Chem. Phys., 2017,
     147, 034112. DOI: 10.1063/1.4993215
   * E. Caldeweyher, S. Ehlert, A. Hansen, H. Neugebauer, S. Spicher,
     C. Bannwarth and S. Grimme, J. Chem. Phys., 2019, 150, 154122.
     DOI: 10.1063/1.5090222
   * E. Caldeweyher, J.-M. Mewes, S. Ehlert and S. Grimme, Phys. Chem. Chem. Phys.
     2020, 22, 8499-8512. DOI: 10.1039/D0CP00502A
   
   for sTDA-xTB:
   * S. Grimme and C. Bannwarth, J. Chem. Phys., 2016, 145, 054103.
     DOI: 10.1063/1.4959605
   
   in the mass-spec context:
   * V. Asgeirsson, C. Bauer and S. Grimme, Chem. Sci., 2017, 8, 4879.
     DOI: 10.1039/c7sc00601b
   * J. Koopman and S. Grimme, ACS Omega 2019, 4, 12, 15120-15133.
     DOI: 10.1021/acsomega.9b02011
   
   for metadynamics refer to:
   * S. Grimme, J. Chem. Theory Comput., 2019, 155, 2847-2862
     DOI: 10.1021/acs.jctc.9b00143
   
   for SPH calculations refer to:
   * S. Spicher and S. Grimme, J. Chem. Theory Comput., 2021, 17, 1701-1714
     DOI: 10.1021/acs.jctc.0c01306
   
   with help from (in alphabetical order)
   P. Atkinson, C. Bannwarth, F. Bohle, G. Brandenburg, E. Caldeweyher
   M. Checinski, S. Dohm, S. Ehlert, S. Ehrlich, I. Gerasimov, C. Hölzer
   A. Katbashev, J. Koopman, C. Lavigne, S. Lehtola, F. März, M. Müller,
   F. Musil, H. Neugebauer, J. Pisarek, C. Plett, P. Pracht, F. Pultar,
   J. Seibert, P. Shushkov, S. Spicher, M. Stahn, M. Steiner, T. Strunk,
   J. Stückrath, T. Rose, and J. Unsleber
   
 * started run on 2026/04/17 at 12:14:14.887     

           -------------------------------------------------
          |                Calculation Setup                |
           -------------------------------------------------

          program call               : /usr/bin/xtb random_d1.90_007_m1_XTB.xyz --grad -c 0 -u 0 -P 1 --namespace random_d1.90_007_m1 --input random_d1.90_007_m1_XTB.input.tmp --acc 0.200000
          calculation namespace      : random_d1.90_007_m1
          coordinate file            : random_d1.90_007_m1_XTB.xyz
          omp threads                :                     1

   ID    Z sym.   atoms
    1    5 B      1-12

molecular fragmentation (1/2 indicates fragments):
122211122211
# atoms in fragment 1/2:     6     6
 fragment masses (1/2) :       64.87       64.87
CMA distance (Bohr)    :   5.252
constraining FC (au)   :  0.0500

           -------------------------------------------------
          |                 G F N 2 - x T B                 |
           -------------------------------------------------

        Reference                      10.1021/acs.jctc.8b01176
      * Hamiltonian:
        H0-scaling (s, p, d)           1.850000    2.230000    2.230000
        zeta-weighting                 0.500000
      * Dispersion:
        s8                             2.700000
        a1                             0.520000
        a2                             5.000000
        s9                             5.000000
      * Repulsion:
        kExp                           1.500000    1.000000
        rExp                           1.000000
      * Coulomb:
        alpha                          2.000000
        third order                    shell-resolved
        anisotropic                    true
        a3                             3.000000
        a5                             4.000000
        cn-shift                       1.200000
        cn-exp                         4.000000
        max-rad                        5.000000


          ...................................................
          :                      SETUP                      :
          :.................................................:
          :  # basis functions                  48          :
          :  # atomic orbitals                  48          :
          :  # shells                           24          :
          :  # electrons                        36          :
          :  max. iterations                   250          :
          :  Hamiltonian                  GFN2-xTB          :
          :  restarted?                      false          :
          :  GBSA solvation                  false          :
          :  PC potential                    false          :
          :  electronic temp.          300.0000000     K    :
          :  accuracy                    0.2000000          :
          :  -> integral cutoff          0.3198970E+02      :
          :  -> integral neglect         0.2000000E-08      :
          :  -> SCF convergence          0.2000000E-06 Eh   :
          :  -> wf. convergence          0.2000000E-04 e    :
          :  Broyden damping             0.4000000          :
          ...................................................

 iter      E             dE          RMSdq      gap      omega  full diag
   1    -10.3503194 -0.103503E+02  0.188E+01    0.11       0.0  T
   2     13.7656603  0.241160E+02  0.293E+01    0.72       1.0  T
   3      3.7836528 -0.998201E+01  0.239E+01    0.47       1.0  T
   4      8.5236239  0.473997E+01  0.242E+01    0.30       1.0  T
   5     -0.7648729 -0.928850E+01  0.195E+01    0.17       1.0  T
   6     -6.7992333 -0.603436E+01  0.161E+01    0.26       1.0  T
   7     -4.7133970  0.208584E+01  0.158E+01    0.11       1.0  T
   8     -9.5370581 -0.482366E+01  0.126E+01    0.25       1.0  T
   9    -10.7300589 -0.119300E+01  0.119E+01    0.21       1.0  T
  10    -12.5985097 -0.186845E+01  0.977E+00    0.25       1.0  T
  11    -12.6722162 -0.737065E-01  0.948E+00    0.22       1.0  T
  12    -12.3689581  0.303258E+00  0.988E+00    0.38       1.0  T
  13    -12.7234830 -0.354525E+00  0.824E+00    0.11       1.0  T
  14    -12.9132031 -0.189720E+00  0.687E+00    0.08       1.0  T
  15    -10.8486144  0.206459E+01  0.108E+01    0.16       1.0  T
  16    -12.8499346 -0.200132E+01  0.671E+00    0.22       1.0  T
  17    -13.0122700 -0.162335E+00  0.621E+00    0.19       1.0  T
  18    -13.0075519  0.471813E-02  0.622E+00    0.19       1.0  T
  19    -12.9706043  0.369476E-01  0.593E+00    0.20       1.0  T
  20    -13.0446625 -0.740581E-01  0.542E+00    0.23       1.0  T
  21    -12.9441876  0.100475E+00  0.551E+00    0.28       1.0  T
  22    -12.9942218 -0.500342E-01  0.517E+00    0.26       1.0  T
  23    -13.0144160 -0.201942E-01  0.498E+00    0.27       1.0  T
  24    -13.2792658 -0.264850E+00  0.361E+00    0.22       1.0  T
  25    -13.2286690  0.505967E-01  0.353E+00    0.26       1.0  T
  26    -13.2461116 -0.174426E-01  0.344E+00    0.25       1.0  T
  27    -13.2461840 -0.723802E-04  0.344E+00    0.25       1.0  T
  28    -13.2987397 -0.525557E-01  0.308E+00    0.24       1.0  T
  29    -13.3797403 -0.810005E-01  0.228E+00    0.21       1.0  T
  30    -13.3918330 -0.120927E-01  0.224E+00    0.20       1.0  T
  31    -13.3953567 -0.352370E-02  0.225E+00    0.20       1.0  T
  32    -13.4141748 -0.188180E-01  0.165E+00    0.17       1.0  T
  33    -13.4332448 -0.190700E-01  0.131E+00    0.15       1.0  T
  34    -13.4568202 -0.235755E-01  0.113E+00    0.13       1.0  T
  35    -13.4570236 -0.203340E-03  0.114E+00    0.13       1.0  T
  36    -13.4564378  0.585766E-03  0.105E+00    0.13       1.0  T
  37    -13.4448518  0.115860E-01  0.119E+00    0.15       1.0  T
  38    -13.4516221 -0.677027E-02  0.965E-01    0.14       1.0  T
  39    -13.4558885 -0.426649E-02  0.851E-01    0.14       1.0  T
  40    -13.4510899  0.479860E-02  0.103E+00    0.14       1.0  T
  41    -13.4524217 -0.133180E-02  0.100E+00    0.14       1.0  T
  42    -13.4535387 -0.111699E-02  0.970E-01    0.14       1.0  T
  43    -13.4589022 -0.536347E-02  0.708E-01    0.13       1.0  T
  44    -13.4620563 -0.315407E-02  0.478E-01    0.13       1.0  T
  45    -13.4615943  0.461936E-03  0.486E-01    0.13       1.0  T
  46    -13.4621235 -0.529131E-03  0.429E-01    0.13       1.0  T
  47    -13.4636008 -0.147735E-02  0.276E-01    0.12       1.0  T
  48    -13.4641514 -0.550585E-03  0.224E-01    0.12       1.0  T
  49    -13.4642613 -0.109865E-03  0.213E-01    0.12       1.0  T
  50    -13.4643324 -0.711653E-04  0.212E-01    0.12       1.0  T
  51    -13.4646989 -0.366494E-03  0.139E-01    0.12       1.0  T
  52    -13.4648393 -0.140372E-03  0.921E-02    0.12       1.0  T
  53    -13.4649467 -0.107358E-03  0.330E-02    0.11       1.0  T
  54    -13.4649350  0.116887E-04  0.452E-02    0.11       1.0  T
  55    -13.4649334  0.157177E-05  0.429E-02    0.11       1.0  T
  56    -13.4649526 -0.192534E-04  0.173E-02    0.11       1.7  T
  57    -13.4649566 -0.392863E-05  0.413E-03    0.12       7.0  T
  58    -13.4649560  0.522509E-06  0.669E-03    0.12       4.3  T
  59    -13.4649565 -0.496051E-06  0.252E-03    0.12      11.5  T
  60    -13.4649566 -0.295012E-07  0.308E-03    0.11       9.4  T
  61    -13.4649566 -0.543458E-07  0.196E-03    0.11      14.7  T
  62    -13.4649566 -0.628219E-08  0.150E-03    0.11      19.2  T
  63    -13.4649567 -0.155100E-07  0.832E-04    0.12      34.7  T
  64    -13.4649567 -0.680689E-08  0.251E-04    0.12     115.2  T
  65    -13.4649567 -0.571308E-09  0.123E-04    0.12     234.3  T
  66    -13.4649567  0.304034E-09  0.195E-04    0.12     148.2  T

   *** convergence criteria satisfied after 66 iterations ***

         #    Occupation            Energy/Eh            Energy/eV
      -------------------------------------------------------------
         1        2.0000           -0.4550160             -12.3816
       ...           ...                  ...                  ...
        12        2.0000           -0.2822161              -7.6795
        13        2.0000           -0.2708024              -7.3689
        14        2.0000           -0.2639407              -7.1822
        15        2.0000           -0.2591034              -7.0506
        16        2.0000           -0.2530328              -6.8854
        17        1.9960           -0.2466761              -6.7124
        18        1.8069           -0.2429030              -6.6097 (HOMO)
        19        0.1971           -0.2386760              -6.4947 (LUMO)
        20        0.0000           -0.2289318              -6.2296
        21        0.0000           -0.2256669              -6.1407
        22                         -0.2241933              -6.1006
        23                         -0.2152159              -5.8563
       ...                                ...                  ...
        48                          2.9902297              81.3683
      -------------------------------------------------------------
                  HL-Gap            0.0042271 Eh            0.1150 eV
             Fermi-level           -0.2407787 Eh           -6.5519 eV

 SCC (total)                   0 d,  0 h,  0 min,  0.089 sec
 SCC setup                      ...        0 min,  0.000 sec (  0.187%)
 Dispersion                     ...        0 min,  0.000 sec (  0.111%)
 classical contributions        ...        0 min,  0.000 sec (  0.039%)
 integral evaluation            ...        0 min,  0.003 sec (  3.470%)
 iterations                     ...        0 min,  0.079 sec ( 88.377%)
 molecular gradient             ...        0 min,  0.007 sec (  7.476%)
 printout                       ...        0 min,  0.000 sec (  0.320%)

         :::::::::::::::::::::::::::::::::::::::::::::::::::::
         ::                     SUMMARY                     ::
         :::::::::::::::::::::::::::::::::::::::::::::::::::::
         :: total energy             -13.101118713542 Eh    ::
         :: gradient norm              0.791038059590 Eh/a0 ::
         :: HOMO-LUMO gap              0.115024398381 eV    ::
         ::.................................................::
         :: SCC energy               -13.464956658275 Eh    ::
         :: -> isotropic ES            0.052328236836 Eh    ::
         :: -> anisotropic ES          0.000472175294 Eh    ::
         :: -> anisotropic XC         -0.027519478055 Eh    ::
         :: -> dispersion             -0.020634040721 Eh    ::
         :: repulsion energy           0.363746431712 Eh    ::
         :: add. restraining           0.000000000000 Eh    ::
         :: total charge              -0.000000000000 e     ::
         :::::::::::::::::::::::::::::::::::::::::::::::::::::


Property printout bound to 'properties.out'

           -------------------------------------------------
          | TOTAL ENERGY              -13.101118713542 Eh   |
          | GRADIENT NORM               0.791038059590 Eh/α |
          | HOMO-LUMO GAP               0.115024398381 eV   |
           -------------------------------------------------

------------------------------------------------------------------------
 * finished run on 2026/04/17 at 12:14:14.989     
------------------------------------------------------------------------
 total:
 * wall-time:     0 d,  0 h,  0 min,  0.102 sec
 *  cpu-time:     0 d,  0 h,  0 min,  0.102 sec
 * ratio c/w:     0.999 speedup
 SCF:
 * wall-time:     0 d,  0 h,  0 min,  0.089 sec
 *  cpu-time:     0 d,  0 h,  0 min,  0.089 sec
 * ratio c/w:     1.000 speedup


-------------------------   --------------------
FINAL SINGLE POINT ENERGY       -13.101118713540
-------------------------   --------------------


-------------
DIPOLE MOMENT
-------------
                                X             Y             Z
Total Dipole Moment    :      1.09600      -2.37400       0.48300
                        -----------------------------------------
Magnitude (a.u.)       :      2.65902
Magnitude (Debye)      :      6.75869


------------------
CARTESIAN GRADIENT
------------------

   1   B   :   -0.076721661   -0.204084905    0.005482448
   2   B   :   -0.023363647    0.033337336   -0.021714469
   3   B   :    0.056730134   -0.082478400   -0.015671848
   4   B   :   -0.007104744    0.029819341    0.076175385
   5   B   :    0.182226462   -0.212757397   -0.409446846
   6   B   :   -0.001855481    0.042377814    0.060829117
   7   B   :   -0.202490855    0.222846456    0.365633115
   8   B   :    0.079316869   -0.015824195    0.023949091
   9   B   :   -0.032223949    0.025005268   -0.039571203
  10   B   :   -0.023865474    0.042601999   -0.033980708
  11   B   :   -0.098858691    0.157991972   -0.079687165
  12   B   :    0.148211037   -0.038835290    0.068003083

Difference to translation invariance:
           :   -0.0000000000    0.0000000000   -0.0000000000

Difference to rotation invariance:
           :    0.0000001392   -0.0000000761   -0.0000000362

Norm of the Cartesian gradient     ...    0.7910380596
RMS gradient                       ...    0.1318396766
MAX gradient                       ...    0.4094468463
------------------------------------------------------------------------------
                         ORCA GEOMETRY RELAXATION STEP
------------------------------------------------------------------------------

Reading the OPT-File                    .... done
Getting information on internals        .... done
Copying old internal coords+grads       .... done
Making the new internal coordinates     .... (2022 redundants) done
Validating the new internal coordinates .... (2022 redundants) done
Calculating the B-matrix                .... done
Calculating the G,G- and P matrices     .... done
Transforming gradient to internals      .... done
Projecting the internal gradient        .... done
Number of atoms                         ....  12
Number of internal coordinates          .... 250
Current Energy                          ....   -13.101118714 Eh
Current gradient norm                   ....     0.791038060 Eh/bohr
Maximum allowed component of the step   ....  0.300
Current trust radius                    ....  0.300
Evaluating the initial hessian          ....  (Almloef) done
Projecting the Hessian                  .... done
Forming the augmented Hessian           .... done
Diagonalizing the augmented Hessian     .... done
Last element of RFO vector              ....  0.850580285
Lowest eigenvalues of augmented Hessian:
 -0.209708727  0.010472623  0.017824334  0.019501164  0.021672688
Length of the computed step             ....  0.618219367
Warning: the length of the step is outside the trust region - taking restricted step instead
The input lambda is                     ....     0.009462
   iter:   5  x=   -0.022716  g=  637.070298 f(x)=     8.687502
   iter:  10  x=   -0.456869  g=    1.083609 f(x)=     0.193378
   iter:  15  x=   -0.753529  g=    0.152306 f(x)=     0.000000
The output lambda is                    ....    -0.753529 (17 iterations)
The final length of the internal step   ....  0.300000000
Converting the step to Cartesian space:
 Initial RMS(Int)=    0.0189736660
Transforming coordinates:
 Iter   0:  RMS(Cart)=    0.0342027064 RMS(Int)=    0.0189125133
done
Storing new coordinates                 .... done

                                .--------------------.
          ----------------------|Geometry convergence|-------------------------
          Item                value                   Tolerance       Converged
          ---------------------------------------------------------------------
          RMS gradient        0.0244759611            0.0000300000      NO
          MAX gradient        0.2026079396            0.0001000000      NO
          RMS step            0.0189736660            0.0006000000      NO
          MAX step            0.1159392719            0.0010000000      NO
          -------------------------------------------------------------------------
          ........................................................
          Max(Bonds)      0.0614      Max(Angles)    1.48
          Max(Dihed)        2.45      Max(Improp)    0.00
          ---------------------------------------------------------------------

The optimization has not yet converged - more geometry cycles are needed


    ---------------------------------------------------------------------------
                         Redundant Internal Coordinates
                            (Angstroem and degrees)

        Definition                    Value    dE/dq     Step     New-Value
    ----------------------------------------------------------------------------
     1. B(B   1,B   0)                3.3569  0.017643 -0.0100    3.3469   
     2. B(B   3,B   0)                2.2581  0.046038 -0.0260    2.2321   
     3. B(B   3,B   1)                2.7955  0.024148 -0.0163    2.7793   
     4. B(B   4,B   0)                1.4076 -0.087185  0.0371    1.4446   
     5. B(B   5,B   1)                3.5801 -0.016882  0.0065    3.5866   
     6. B(B   5,B   4)                1.7690  0.035548 -0.0169    1.7521   
     7. B(B   6,B   2)                2.2862  0.049258 -0.0279    2.2583   
     8. B(B   6,B   0)                1.8322 -0.126097  0.0510    1.8832   
     9. B(B   6,B   4)                1.2645 -0.151933  0.0614    1.3259   
    10. B(B   7,B   0)                2.7785  0.032449 -0.0187    2.7597   
    11. B(B   7,B   3)                2.6180  0.009703 -0.0112    2.6069   
    12. B(B   7,B   1)                3.3253  0.016808 -0.0124    3.3129   
    13. B(B   8,B   1)                3.5455  0.007908 -0.0067    3.5388   
    14. B(B   8,B   2)                2.4149  0.044767 -0.0288    2.3861   
    15. B(B   9,B   0)                2.8010  0.003037 -0.0057    2.7953   
    16. B(B   9,B   7)                1.7638  0.028938 -0.0190    1.7448   
    17. B(B   9,B   2)                1.7048  0.018150 -0.0147    1.6901   
    18. B(B   9,B   1)                2.7637 -0.000667 -0.0025    2.7612   
    19. B(B   9,B   8)                2.5744  0.014518 -0.0106    2.5638   
    20. B(B  10,B   0)                1.3239 -0.202608  0.0588    1.3827   
    21. B(B  11,B   6)                1.7809 -0.132083  0.0540    1.8348   
    22. B(B  11,B   5)                1.7798  0.010386 -0.0100    1.7698   
    23. B(B  11,B   4)                1.3674 -0.075630  0.0319    1.3993   
    24. A(B   6,B   0,B  10)           91.12 -0.004350    0.30     91.42   
    25. A(B   4,B   0,B  10)          110.09 -0.011462    0.55    110.63   
    26. A(B   7,B   0,B  10)           92.56  0.000166    0.02     92.58   
    27. A(B   1,B   0,B   9)           52.39 -0.002358    0.11     52.50   
    28. A(B   1,B   0,B  10)          157.37 -0.001412    0.06    157.43   
    29. A(B   1,B   0,B   6)           97.65  0.010739   -0.60     97.04   
    30. A(B   1,B   0,B   7)           64.84 -0.001651    0.04     64.88   
    31. A(B   3,B   0,B   7)           61.62 -0.007006    0.28     61.90   
    32. A(B   1,B   0,B   4)           90.32  0.011167   -0.54     89.78   
    33. A(B   4,B   0,B   7)          143.32  0.002739   -0.24    143.08   
    34. A(B   3,B   0,B   4)          126.88  0.018303   -0.83    126.05   
    35. A(B   3,B   0,B   9)           84.72 -0.002431   -0.00     84.72   
    36. A(B   7,B   0,B   9)           36.85  0.003611   -0.25     36.61   
    37. A(B   6,B   0,B   9)           77.67  0.017888   -0.87     76.80   
    38. A(B   4,B   0,B   6)           43.53 -0.024679    1.07     44.61   
    39. A(B   6,B   0,B   7)          110.41  0.021248   -1.06    109.35   
    40. A(B   1,B   0,B   3)           55.66  0.001182   -0.14     55.52   
    41. A(B   3,B   0,B   6)          153.30  0.011703   -0.73    152.56   
    42. A(B   9,B   0,B  10)          110.12  0.001357   -0.08    110.04   
    43. A(B   4,B   0,B   9)          106.70 -0.001942    0.06    106.76   
    44. A(B   3,B   0,B  10)          113.91 -0.003112    0.21    114.12   
    45. A(B   3,B   1,B   7)           49.73 -0.001172    0.00     49.73   
    46. A(B   7,B   1,B   9)           32.02  0.003747   -0.25     31.76   
    47. A(B   3,B   1,B   9)           76.25  0.001466   -0.21     76.05   
    48. A(B   5,B   1,B   9)           92.27 -0.007090    0.27     92.54   
    49. A(B   0,B   1,B   8)           78.68 -0.004132    0.11     78.79   
    50. A(B   0,B   1,B   5)           45.09 -0.013275    0.65     45.74   
    51. A(B   3,B   1,B   5)           65.31 -0.012821    0.67     65.98   
    52. A(B   5,B   1,B   8)           89.72  0.001980   -0.23     89.49   
    53. A(B   0,B   1,B   3)           41.83  0.006288   -0.38     41.45   
    54. A(B   3,B   1,B   8)          116.72  0.002434   -0.30    116.42   
    55. A(B   8,B   1,B   9)           46.13  0.001849   -0.13     46.00   
    56. A(B   0,B   1,B   7)           49.14  0.003155   -0.18     48.96   
    57. A(B   0,B   1,B   9)           53.41 -0.001502    0.02     53.43   
    58. A(B   7,B   1,B   8)           78.14  0.005599   -0.38     77.76   
    59. A(B   5,B   1,B   7)           94.11 -0.011204    0.53     94.64   
    60. A(B   6,B   2,B   9)           96.47 -0.018654    1.06     97.52   
    61. A(B   6,B   2,B   8)           96.86 -0.000239    0.12     96.98   
    62. A(B   8,B   2,B   9)           75.15 -0.009426    0.66     75.81   
    63. A(B   0,B   3,B   7)           69.02  0.001131    0.03     69.05   
    64. A(B   1,B   3,B   7)           75.72 -0.001099    0.12     75.84   
    65. A(B   0,B   3,B   1)           82.51 -0.007471    0.52     83.03   
    66. A(B   0,B   4,B   6)           86.41  0.018913   -0.90     85.51   
    67. A(B   6,B   4,B  11)           85.07  0.010514   -0.48     84.59   
    68. A(B   5,B   4,B  11)           67.75  0.006327   -0.48     67.27   
    69. A(B   0,B   4,B  11)          151.84  0.017054   -0.77    151.07   
    70. A(B   5,B   4,B   6)          151.72  0.017035   -0.98    150.74   
    71. A(B   0,B   4,B   5)          113.77 -0.027284    1.43    115.20   
    72. A(B   4,B   5,B  11)           45.33 -0.030108    1.48     46.80   
    73. A(B   1,B   5,B  11)           84.64  0.001679   -0.08     84.56   
    74. A(B   1,B   5,B   4)           77.96  0.004492   -0.27     77.69   
    75. A(B   4,B   6,B  11)           49.91  0.012933   -0.52     49.38   
    76. A(B   0,B   6,B  11)           96.30  0.019849   -0.75     95.55   
    77. A(B   2,B   6,B  11)          128.87 -0.000660    0.04    128.90   
    78. A(B   2,B   6,B   4)          135.62  0.013157   -0.57    135.05   
    79. A(B   0,B   6,B   2)           94.53  0.008556   -0.45     94.08   
    80. A(B   0,B   6,B   4)           50.06  0.005766   -0.17     49.89   
    81. A(B   0,B   7,B   9)           72.27 -0.010290    0.53     72.80   
    82. A(B   0,B   7,B   1)           66.02 -0.001504    0.14     66.16   
    83. A(B   1,B   7,B   3)           54.56  0.002271   -0.12     54.43   
    84. A(B   1,B   7,B   9)           56.17 -0.004203    0.24     56.41   
    85. A(B   3,B   7,B   9)          101.34 -0.002766    0.12    101.46   
    86. A(B   0,B   7,B   3)           49.36  0.005875   -0.31     49.06   
    87. A(B   2,B   8,B   9)           39.80  0.000125   -0.07     39.73   
    88. A(B   1,B   8,B   9)           50.71 -0.001631    0.08     50.79   
    89. A(B   1,B   8,B   2)           84.02 -0.000960   -0.04     83.98   
    90. A(B   2,B   9,B   7)          119.79 -0.009649    0.53    120.32   
    91. A(B   1,B   9,B   8)           83.16 -0.000219    0.05     83.21   
    92. A(B   0,B   9,B   1)           74.20  0.003860   -0.13     74.07   
    93. A(B   1,B   9,B   7)           91.81  0.000456    0.01     91.82   
    94. A(B   1,B   9,B   2)          130.14  0.006094   -0.42    129.72   
    95. A(B   0,B   9,B   8)          109.00 -0.006443    0.28    109.28   
    96. A(B   7,B   9,B   8)          174.74  0.000328    0.06    174.80   
    97. A(B   2,B   9,B   8)           65.05  0.009300   -0.59     64.47   
    98. A(B   0,B   9,B   7)           70.88  0.006679   -0.29     70.59   
    99. A(B   0,B   9,B   2)           80.93 -0.010907    0.42     81.35   
   100. A(B   4,B  11,B   5)           66.92  0.023781   -1.00     65.92   
   101. A(B   5,B  11,B   6)          111.56  0.000734   -0.02    111.54   
   102. A(B   4,B  11,B   6)           45.03 -0.023447    1.00     46.03   
   103. D(B   3,B   1,B   0,B   4)    136.31  0.013853   -0.53    135.78   
   104. D(B   3,B   1,B   0,B   7)    -71.63  0.008076   -0.36    -72.00   
   105. D(B   9,B   1,B   0,B   4)   -111.01  0.011023   -0.49   -111.49   
   106. D(B   3,B   1,B   0,B   6)    179.36 -0.010597    0.54    179.90   
   107. D(B   9,B   1,B   0,B   7)     41.06  0.005246   -0.32     40.73   
   108. D(B   9,B   1,B   0,B  10)     43.98  0.001067   -0.11     43.87   
   109. D(B   9,B   1,B   0,B   6)    -67.95 -0.013427    0.58    -67.37   
   110. D(B   3,B   1,B   0,B   9)   -112.69  0.002830   -0.04   -112.73   
   111. D(B   9,B   1,B   0,B   3)    112.69 -0.002830    0.04    112.73   
   112. D(B   3,B   1,B   0,B  10)    -68.70  0.003897   -0.15    -68.86   
   113. D(B   7,B   1,B   0,B   4)   -152.06  0.005777   -0.17   -152.23   
   114. D(B   7,B   3,B   0,B   9)    -30.29 -0.001924    0.13    -30.17   
   115. D(B   7,B   3,B   0,B  10)     79.40 -0.001690    0.05     79.45   
   116. D(B   7,B   3,B   0,B   1)    -77.52 -0.001482    0.06    -77.46   
   117. D(B   7,B   3,B   1,B   0)     70.17  0.002889   -0.09     70.08   
   118. D(B   7,B   3,B   1,B   8)     43.27  0.005503   -0.27     43.01   
   119. D(B   1,B   3,B   0,B  10)    156.91 -0.000208   -0.00    156.91   
   120. D(B   7,B   3,B   0,B   4)   -137.25 -0.000062    0.17   -137.08   
   121. D(B   7,B   3,B   1,B   9)     20.48  0.003231   -0.15     20.32   
   122. D(B   0,B   3,B   1,B   7)    -70.17 -0.002889    0.09    -70.08   
   123. D(B   1,B   3,B   0,B   6)     -1.41 -0.023917    1.23     -0.19   
   124. D(B   0,B   3,B   1,B   5)     49.36 -0.004411    0.14     49.50   
   125. D(B   0,B   3,B   1,B   8)    -26.90  0.002615   -0.17    -27.07   
   126. D(B   7,B   3,B   0,B   6)    -78.93 -0.025400    1.28    -77.65   
   127. D(B   0,B   3,B   1,B   9)    -49.69  0.000343   -0.06    -49.75   
   128. D(B   1,B   3,B   0,B   4)    -59.73  0.001420    0.11    -59.62   
   129. D(B   5,B   4,B   0,B   6)   -159.47 -0.018576    1.00   -158.47   
   130. D(B   5,B   4,B   0,B  10)    131.29 -0.006377    0.35    131.65   
   131. D(B   5,B   4,B   0,B   7)   -103.91 -0.023895    1.11   -102.80   
   132. D(B   5,B   4,B   0,B   3)    -13.19 -0.009945    0.32    -12.87   
   133. D(B   5,B   4,B   0,B   9)   -109.23 -0.012215    0.59   -108.63   
   134. D(B   6,B   4,B   0,B   7)     55.56 -0.005319    0.11     55.67   
   135. D(B   6,B   4,B   0,B  10)    -69.24  0.012199   -0.65    -69.88   
   136. D(B   6,B   4,B   0,B   3)    146.28  0.008630   -0.68    145.60   
   137. D(B   5,B   4,B   0,B   1)    -58.68 -0.009988    0.49    -58.19   
   138. D(B   1,B   5,B   4,B   6)    -77.39 -0.003614    0.14    -77.25   
   139. D(B   1,B   5,B   4,B   0)     54.99  0.014750   -0.73     54.26   
   140. D(B  11,B   5,B   4,B   6)     17.01  0.003002   -0.14     16.87   
   141. D(B   4,B   5,B   1,B   8)     47.87 -0.011676    0.62     48.49   
   142. D(B   4,B   5,B   1,B   0)    -26.34 -0.000010    0.05    -26.29   
   143. D(B   4,B   5,B   1,B   7)    -30.22 -0.017665    1.03    -29.19   
   144. D(B   4,B   5,B   1,B   3)    -71.95 -0.016830    1.02    -70.92   
   145. D(B  11,B   5,B   1,B   3)   -117.35  0.014041   -0.49   -117.84   
   146. D(B  11,B   5,B   1,B   9)    -43.61  0.016905   -0.74    -44.35   
   147. D(B   4,B   5,B   1,B   9)      1.80 -0.013967    0.78      2.57   
   148. D(B   1,B   5,B   4,B  11)    -94.40 -0.006616    0.28    -94.12   
   149. D(B  11,B   5,B   4,B   0)    149.39  0.021366   -1.01    148.38   
   150. D(B   0,B   6,B   4,B   5)    137.36  0.005459   -0.20    137.16   
   151. D(B   4,B   6,B   2,B   8)    -74.98  0.010893   -0.73    -75.70   
   152. D(B   4,B   6,B   2,B   9)      0.77 -0.000436    0.05      0.82   
   153. D(B  11,B   6,B   0,B   7)   -127.93 -0.001162    0.08   -127.86   
   154. D(B  11,B   6,B   0,B   3)    -60.82  0.020372   -1.10    -61.92   
   155. D(B  11,B   6,B   0,B  10)    138.91 -0.000567   -0.01    138.90   
   156. D(B   0,B   6,B   2,B   8)   -107.87  0.003034   -0.40   -108.27   
   157. D(B  11,B   6,B   0,B   4)     20.36 -0.001522    0.08     20.43   
   158. D(B  11,B   6,B   2,B   9)     69.73  0.024700   -0.98     68.75   
   159. D(B   4,B   6,B   0,B   1)    -82.35  0.001924   -0.15    -82.50   
   160. D(B   4,B   6,B   0,B   9)   -131.09  0.002253   -0.19   -131.27   
   161. D(B   4,B   6,B   0,B   7)   -148.29  0.000360    0.00   -148.29   
   162. D(B   0,B   6,B   4,B  11)    153.13  0.008705   -0.37    152.76   
   163. D(B   0,B   6,B   2,B   9)    -32.12 -0.008295    0.37    -31.75   
   164. D(B   4,B   6,B   0,B  10)    118.56  0.000955   -0.09    118.46   
   165. D(B   4,B   6,B   0,B   3)    -81.18  0.021893   -1.17    -82.35   
   166. D(B   2,B   6,B   4,B   5)     92.45 -0.001166    0.12     92.56   
   167. D(B   2,B   6,B   4,B   0)    -44.92 -0.006625    0.32    -44.60   
   168. D(B  11,B   6,B   4,B   5)    -15.77 -0.003246    0.17    -15.60   
   169. D(B  11,B   6,B   4,B   0)   -153.13 -0.008705    0.37   -152.76   
   170. D(B   1,B   7,B   3,B   0)     87.34 -0.008054    0.51     87.85   
   171. D(B   9,B   7,B   3,B   1)    -32.89  0.000228   -0.08    -32.98   
   172. D(B   9,B   7,B   3,B   0)     54.44 -0.007826    0.43     54.88   
   173. D(B   3,B   7,B   1,B   5)    -52.43  0.007587   -0.42    -52.85   
   174. D(B   3,B   7,B   1,B   8)   -141.27  0.002762   -0.04   -141.32   
   175. D(B   3,B   7,B   1,B   0)    -56.06 -0.007930    0.45    -55.61   
   176. D(B   3,B   7,B   1,B   9)   -140.13  0.002521   -0.05   -140.18   
   177. D(B   9,B   7,B   1,B   5)     87.70  0.005066   -0.37     87.33   
   178. D(B   9,B   7,B   1,B   8)     -1.14  0.000241    0.01     -1.13   
   179. D(B   9,B   7,B   1,B   0)     84.07 -0.010451    0.50     84.57   
   180. D(B   9,B   7,B   1,B   3)    140.13 -0.002521    0.05    140.18   
   181. D(B   3,B   7,B   0,B   9)    123.13  0.002679   -0.17    122.95   
   182. D(B   3,B   7,B   0,B  10)   -115.92  0.002204   -0.17   -116.08   
   183. D(B   3,B   7,B   0,B   6)    151.93  0.005541   -0.43    151.50   
   184. D(B   9,B   7,B   0,B   1)    -60.17  0.001066   -0.07    -60.24   
   185. D(B   9,B   7,B   0,B   3)   -123.13 -0.002679    0.17   -122.95   
   186. D(B   9,B   7,B   0,B  10)    120.96 -0.000475    0.01    120.96   
   187. D(B   9,B   7,B   0,B   6)     28.80  0.002862   -0.26     28.55   
   188. D(B   0,B   7,B   3,B   1)    -87.34  0.008054   -0.51    -87.85   
   189. D(B   9,B   7,B   0,B   4)     -8.51  0.019411   -0.87     -9.38   
   190. D(B   3,B   7,B   0,B   4)    114.62  0.022090   -1.05    113.58   
   191. D(B   1,B   8,B   2,B   6)     65.25 -0.018631    0.98     66.23   
   192. D(B   1,B   8,B   2,B   9)    -29.65  0.001618   -0.15    -29.80   
   193. D(B   9,B   8,B   2,B   6)     94.90 -0.020248    1.13     96.04   
   194. D(B   9,B   8,B   1,B   7)      0.84 -0.000116   -0.01      0.83   
   195. D(B   9,B   8,B   1,B   3)    -31.47 -0.002440    0.12    -31.35   
   196. D(B   2,B   8,B   1,B   5)    -69.27  0.011260   -0.55    -69.82   
   197. D(B   2,B   8,B   1,B   0)    -25.24 -0.003921    0.21    -25.03   
   198. D(B   2,B   8,B   1,B   7)     24.99 -0.000724    0.04     25.03   
   199. D(B   2,B   8,B   1,B   3)     -7.31 -0.003048    0.17     -7.14   
   200. D(B   2,B   8,B   1,B   9)     24.15 -0.000608    0.05     24.20   
   201. D(B   2,B   9,B   7,B   1)   -139.58 -0.001747    0.18   -139.41   
   202. D(B   2,B   9,B   7,B   0)    -67.00  0.003153   -0.01    -67.00   
   203. D(B   2,B   9,B   7,B   3)   -107.40  0.000821    0.10   -107.30   
   204. D(B   8,B   9,B   2,B   6)    -95.41 -0.003683    0.09    -95.33   
   205. D(B   0,B   9,B   2,B   8)    115.97 -0.004836    0.32    116.29   
   206. D(B   0,B   9,B   2,B   6)     20.56 -0.008519    0.41     20.96   
   207. D(B   7,B   9,B   2,B   6)     82.28 -0.003464    0.10     82.38   
   208. D(B   7,B   9,B   1,B   5)    -94.12  0.010084   -0.58    -94.71   
   209. D(B   7,B   9,B   1,B   8)    178.45  0.000344    0.01    178.46   
   210. D(B   7,B   9,B   1,B   0)    -69.54 -0.007398    0.32    -69.22   
   211. D(B   7,B   9,B   1,B   3)    -30.23 -0.000971    0.00    -30.23   
   212. D(B   2,B   9,B   1,B   5)     38.48  0.000720   -0.10     38.39   
   213. D(B   2,B   9,B   1,B   8)    -48.94 -0.009020    0.49    -48.45   
   214. D(B   2,B   9,B   1,B   0)     63.07 -0.016762    0.81     63.88   
   215. D(B   2,B   9,B   1,B   7)    132.61 -0.009364    0.49    133.09   
   216. D(B   2,B   9,B   1,B   3)    102.38 -0.010335    0.49    102.87   
   217. D(B   7,B   9,B   0,B   3)     47.73 -0.005840    0.29     48.02   
   218. D(B   7,B   9,B   0,B  10)    -65.83 -0.001727    0.08    -65.76   
   219. D(B   7,B   9,B   0,B   6)   -152.47 -0.003446    0.06   -152.41   
   220. D(B   7,B   9,B   2,B   8)    177.70  0.000219    0.01    177.71   
   221. D(B   7,B   9,B   0,B   4)    174.71  0.012418   -0.57    174.14   
   222. D(B   2,B   9,B   0,B   1)   -136.35 -0.011363    0.66   -135.69   
   223. D(B   2,B   9,B   0,B   7)    126.01 -0.008155    0.51    126.51   
   224. D(B   1,B   9,B   2,B   6)    -39.76  0.001448   -0.13    -39.89   
   225. D(B   2,B   9,B   0,B   3)    173.74 -0.013995    0.80    174.53   
   226. D(B   2,B   9,B   0,B  10)     60.18 -0.009882    0.58     60.76   
   227. D(B   2,B   9,B   0,B   6)    -26.46 -0.011601    0.57    -25.89   
   228. D(B   0,B   9,B   7,B   3)    -40.40 -0.002332    0.11    -40.30   
   229. D(B   2,B   9,B   0,B   4)    -59.28  0.004262   -0.07    -59.35   
   230. D(B   1,B   9,B   8,B   2)   -140.53 -0.001324    0.16   -140.36   
   231. D(B   0,B   9,B   8,B   1)     70.65  0.005703   -0.19     70.46   
   232. D(B   0,B   9,B   8,B   2)    -69.87  0.004379   -0.03    -69.90   
   233. D(B   7,B   9,B   8,B   1)    -17.11  0.002826   -0.14    -17.25   
   234. D(B   7,B   9,B   8,B   2)   -157.64  0.001502    0.02   -157.61   
   235. D(B   2,B   9,B   8,B   1)    140.53  0.001324   -0.16    140.36   
   236. D(B   8,B   9,B   7,B   0)     89.58  0.002090   -0.04     89.54   
   237. D(B   8,B   9,B   7,B   3)     49.18 -0.000241    0.06     49.24   
   238. D(B   0,B   9,B   7,B   1)    -72.59 -0.004900    0.18    -72.40   
   239. D(B   5,B  11,B   6,B   2)   -113.51 -0.025707    1.16   -112.35   
   240. D(B   5,B  11,B   6,B   4)      7.91 -0.001713    0.14      8.04   
   241. D(B   5,B  11,B   6,B   0)    -12.50  0.002067   -0.05    -12.55   
   242. D(B   4,B  11,B   6,B   2)   -121.42 -0.023994    1.02   -120.40   
   243. D(B   4,B  11,B   6,B   0)    -20.40  0.003779   -0.19    -20.59   
   244. D(B   6,B  11,B   5,B   1)     72.27  0.006298   -0.39     71.88   
   245. D(B   6,B  11,B   5,B   4)     -6.07  0.004882   -0.26     -6.33   
   246. D(B   4,B  11,B   5,B   1)     78.35  0.001415   -0.14     78.21   
   247. D(B   6,B  11,B   4,B   5)    172.00  0.003196   -0.20    171.81   
   248. D(B   6,B  11,B   4,B   0)     72.88  0.051476   -2.45     70.43   
   249. D(B   5,B  11,B   4,B   6)   -172.00 -0.003196    0.20   -171.81   
   250. D(B   5,B  11,B   4,B   0)    -99.13  0.048280   -2.25   -101.38   
    ----------------------------------------------------------------------------

Geometry step timings:
Preparation and reading OPT file:      0.000 s ( 0.146 %)
Internal coordinates            :      0.000 s ( 0.268 %)
B/P matrices and projection     :      0.004 s (16.436 %)
Hessian update/contruction      :      0.005 s (17.674 %)
Making the step                 :      0.015 s (55.622 %)
Converting the step to Cartesian:      0.001 s ( 1.936 %)
Storing new data                :      0.000 s ( 0.387 %)
Checking convergence            :      0.000 s ( 0.464 %)
Final printing                  :      0.002 s ( 7.054 %)
Total time                      :      0.026 s

Time for energy+gradient        :      0.112 s
Time for complete geometry iter :      0.140 s

         *************************************************************
         *                GEOMETRY OPTIMIZATION CYCLE   2            *
         *************************************************************
---------------------------------
CARTESIAN COORDINATES (ANGSTROEM)
---------------------------------
  B     0.182195   -0.388087    1.118363
  B    -0.140698    2.535862   -0.477822
  B     0.997109   -1.156540   -1.709304
  B     0.895569    1.571664    1.914058
  B    -1.180772   -0.720519    0.773624
  B    -2.390883    0.413663    1.337950
  B    -0.646618   -1.458262   -0.190607
  B     2.524750    0.654518    0.097503
  B    -0.229799    0.260031   -3.186308
  B     1.440974    0.407390   -1.247344
  B     0.830674   -1.485438    1.654323
  B    -2.282501   -0.634281   -0.084433

----------------------------
CARTESIAN COORDINATES (A.U.)
----------------------------
  NO LB    ZA    FRAG    MASS        X           Y           Z
   0 B   5.0000    0    10.810    0.344299   -0.733378    2.113400
   1 B   5.0000    0    10.810   -0.265880    4.792084   -0.902953
   2 B   5.0000    0    10.810    1.884262   -2.185544   -3.230117
   3 B   5.0000    0    10.810    1.692381    2.970015    3.617045
   4 B   5.0000    0    10.810   -2.231336   -1.361584    1.461937
   5 B   5.0000    0    10.810   -4.518114    0.781709    2.528359
   6 B   5.0000    0    10.810   -1.221931   -2.755716   -0.360196
   7 B   5.0000    0    10.810    4.771086    1.236860    0.184254
   8 B   5.0000    0    10.810   -0.434257    0.491387   -6.021250
   9 B   5.0000    0    10.810    2.723047    0.769856   -2.357139
  10 B   5.0000    0    10.810    1.569746   -2.807071    3.126217
  11 B   5.0000    0    10.810   -4.313302   -1.198617   -0.159556

      -----------------------------------------------------------      
     |                   =====================                   |     
     |                           x T B                           |     
     |                   =====================                   |     
     |                         S. Grimme                         |     
     |          Mulliken Center for Theoretical Chemistry        |     
     |                    University of Bonn                     |     
      -----------------------------------------------------------      

   * xtb version 6.6.1 (unknown) compiled by 'builduser@buildhost' on 2023-08-07

   xtb is free software: you can redistribute it and/or modify it under
   the terms of the GNU Lesser General Public License as published by
   the Free Software Foundation, either version 3 of the License, or
   (at your option) any later version.
   
   xtb is distributed in the hope that it will be useful,
   but WITHOUT ANY WARRANTY; without even the implied warranty of
   MERCHANTABILITY or FITNESS FOR A PARTICULAR PURPOSE.  See the
   GNU Lesser General Public License for more details.
   
   Cite this work as:
   * C. Bannwarth, E. Caldeweyher, S. Ehlert, A. Hansen, P. Pracht,
     J. Seibert, S. Spicher, S. Grimme, WIREs Comput. Mol. Sci., 2020, 11,
     e01493. DOI: 10.1002/wcms.1493
   
   for GFN2-xTB:
   * C. Bannwarth, S. Ehlert and S. Grimme., J. Chem. Theory Comput., 2019,
     15, 1652-1671. DOI: 10.1021/acs.jctc.8b01176
   for GFN1-xTB:
   * S. Grimme, C. Bannwarth, P. Shushkov, J. Chem. Theory Comput., 2017,
     13, 1989-2009. DOI: 10.1021/acs.jctc.7b00118
   for GFN0-xTB:
   * P. Pracht, E. Caldeweyher, S. Ehlert, S. Grimme, ChemRxiv, 2019, preprint.
     DOI: 10.26434/chemrxiv.8326202.v1
   for GFN-FF:
   * S. Spicher and S. Grimme, Angew. Chem. Int. Ed., 2020, 59, 15665-15673.
     DOI: 10.1002/anie.202004239
   
   for ALPB and GBSA implicit solvation:
   * S. Ehlert, M. Stahn, S. Spicher, S. Grimme, J. Chem. Theory Comput.,
     2021, 17, 4250-4261. DOI: 10.1021/acs.jctc.1c00471
   
   for DFT-D4:
   * E. Caldeweyher, C. Bannwarth and S. Grimme, J. Chem. Phys., 2017,
     147, 034112. DOI: 10.1063/1.4993215
   * E. Caldeweyher, S. Ehlert, A. Hansen, H. Neugebauer, S. Spicher,
     C. Bannwarth and S. Grimme, J. Chem. Phys., 2019, 150, 154122.
     DOI: 10.1063/1.5090222
   * E. Caldeweyher, J.-M. Mewes, S. Ehlert and S. Grimme, Phys. Chem. Chem. Phys.
     2020, 22, 8499-8512. DOI: 10.1039/D0CP00502A
   
   for sTDA-xTB:
   * S. Grimme and C. Bannwarth, J. Chem. Phys., 2016, 145, 054103.
     DOI: 10.1063/1.4959605
   
   in the mass-spec context:
   * V. Asgeirsson, C. Bauer and S. Grimme, Chem. Sci., 2017, 8, 4879.
     DOI: 10.1039/c7sc00601b
   * J. Koopman and S. Grimme, ACS Omega 2019, 4, 12, 15120-15133.
     DOI: 10.1021/acsomega.9b02011
   
   for metadynamics refer to:
   * S. Grimme, J. Chem. Theory Comput., 2019, 155, 2847-2862
[...]
    64. A(B   1,B   3,B   7)           57.34 -0.000025   -0.76     56.59   
    65. A(B   0,B   3,B   1)          145.93  0.000017   -1.21    144.72   
    66. A(B   0,B   4,B   6)          104.85  0.000291    1.83    106.68   
    67. A(B   6,B   4,B  11)           32.16 -0.000058   -0.74     31.43   
    68. A(B   5,B   4,B  11)           28.36  0.000588   -1.27     27.09   
    69. A(B   0,B   4,B  11)          135.19  0.000294    0.94    136.13   
    70. A(B   5,B   4,B   6)           60.03  0.000531   -2.12     57.91   
    71. A(B   0,B   4,B   5)          162.66  0.000871    0.06    162.72   
    72. A(B   4,B   5,B  11)          122.75 -0.001108    2.67    125.42   
    73. A(B   1,B   5,B  11)           95.49 -0.000563    1.99     97.48   
    74. A(B   1,B   5,B   4)           35.07 -0.000228   -0.11     34.96   
    75. A(B   4,B   6,B  11)           69.61  0.001054   -0.09     69.53   
    76. A(B   0,B   6,B  11)           93.76  0.001200   -1.20     92.56   
    77. A(B   2,B   6,B  11)          176.97  0.001349   -0.77    176.21   
    78. A(B   2,B   6,B   4)          107.85  0.000088   -1.34    106.50   
    79. A(B   0,B   6,B   2)           83.52  0.000017   -0.32     83.20   
    80. A(B   0,B   6,B   4)           25.13  0.000124   -1.07     24.06   
    81. A(B   0,B   7,B   9)          121.49 -0.000177   -0.01    121.48   
    82. A(B   0,B   7,B   1)           80.95 -0.000035   -0.40     80.54   
    83. A(B   1,B   7,B   3)           46.76 -0.000277   -0.51     46.24   
    84. A(B   1,B   7,B   9)           51.73 -0.000123   -0.15     51.58   
    85. A(B   3,B   7,B   9)           95.70 -0.000383   -0.47     95.24   
    86. A(B   0,B   7,B   3)           36.09  0.000250    0.16     36.25   
    87. A(B   2,B   8,B   9)          138.37 -0.000628    1.10    139.47   
    88. A(B   1,B   8,B   9)           29.90 -0.000041   -0.76     29.14   
    89. A(B   1,B   8,B   2)          114.78 -0.000619    1.00    115.78   
    90. A(B   2,B   9,B   7)           64.27 -0.000010   -0.18     64.08   
    91. A(B   1,B   9,B   8)          120.40  0.000037    1.42    121.82   
    92. A(B   0,B   9,B   1)           43.73 -0.000127   -0.30     43.43   
    93. A(B   1,B   9,B   7)           65.40 -0.000094    0.11     65.50   
    94. A(B   1,B   9,B   2)          105.12 -0.000323    1.13    106.26   
    95. A(B   0,B   9,B   8)           76.67  0.000165    0.49     77.16   
    96. A(B   7,B   9,B   8)           65.11  0.000110   -0.90     64.20   
    97. A(B   2,B   9,B   8)           20.84  0.000380   -0.63     20.22   
    98. A(B   0,B   9,B   7)           36.37  0.000170   -0.03     36.34   
    99. A(B   0,B   9,B   2)           62.90 -0.000217    1.05     63.94   
   100. A(B   4,B  11,B   5)           28.88  0.000520   -1.40     27.49   
   101. A(B   5,B  11,B   6)          106.27 -0.000475   -0.77    105.50   
   102. A(B   4,B  11,B   6)           78.23 -0.000997    0.82     79.05   
   103. D(B   3,B   1,B   0,B   4)    124.14  0.000124    0.94    125.08   
   104. D(B   3,B   1,B   0,B   7)   -132.38  0.000064   -1.99   -134.37   
   105. D(B   9,B   1,B   0,B   4)    -67.08  0.000354    2.70    -64.38   
   106. D(B   3,B   1,B   0,B   6)    163.63 -0.000189   -0.10    163.53   
   107. D(B   9,B   1,B   0,B   7)     36.40  0.000293   -0.23     36.17   
   108. D(B   9,B   1,B   0,B  10)     57.63  0.000292    2.43     60.06   
   109. D(B   9,B   1,B   0,B   6)    -27.59  0.000041    1.66    -25.93   
   110. D(B   3,B   1,B   0,B   9)   -168.78 -0.000229   -1.76   -170.54   
   111. D(B   9,B   1,B   0,B   3)    168.78  0.000229    1.76    170.54   
   112. D(B   3,B   1,B   0,B  10)   -111.14  0.000063    0.66   -110.48   
   113. D(B   7,B   1,B   0,B   4)   -103.47  0.000061    2.93   -100.54   
   114. D(B   7,B   3,B   0,B   9)    -28.71 -0.000193    0.59    -28.12   
   115. D(B   7,B   3,B   0,B  10)     25.85  0.000441    2.21     28.06   
   116. D(B   7,B   3,B   0,B   1)    -35.24 -0.000058    1.88    -33.36   
   117. D(B   7,B   3,B   1,B   0)     42.98  0.000085   -1.65     41.34   
   118. D(B   7,B   3,B   1,B   8)     31.33  0.000148   -0.91     30.42   
   119. D(B   1,B   3,B   0,B  10)     61.09  0.000499    0.33     61.42   
   120. D(B   7,B   3,B   0,B   4)    -99.57  0.000308    2.68    -96.88   
   121. D(B   7,B   3,B   1,B   9)     29.15  0.000303   -0.16     28.99   
   122. D(B   0,B   3,B   1,B   7)    -42.98 -0.000085    1.65    -41.34   
   123. D(B   1,B   3,B   0,B   6)    -16.52 -0.000177   -0.14    -16.66   
   124. D(B   0,B   3,B   1,B   5)     32.71  0.000262   -1.11     31.60   
   125. D(B   0,B   3,B   1,B   8)    -11.65  0.000063    0.74    -10.91   
   126. D(B   7,B   3,B   0,B   6)    -51.76 -0.000235    1.74    -50.02   
   127. D(B   0,B   3,B   1,B   9)    -13.83  0.000218    1.48    -12.34   
   128. D(B   1,B   3,B   0,B   4)    -64.33  0.000366    0.80    -63.52   
   129. D(B   5,B   4,B   0,B   6)     27.77  0.000477   -0.40     27.37   
   130. D(B   5,B   4,B   0,B  10)     12.34 -0.000829   -0.22     12.13   
   131. D(B   5,B   4,B   0,B   7)     43.29  0.000775   -1.20     42.09   
   132. D(B   5,B   4,B   0,B   3)    100.04  0.000153   -0.47     99.57   
   133. D(B   5,B   4,B   0,B   9)     63.64  0.000676   -0.31     63.33   
   134. D(B   6,B   4,B   0,B   7)     15.52  0.000298   -1.32     14.21   
   135. D(B   6,B   4,B   0,B  10)    -15.42 -0.001305    0.18    -15.24   
   136. D(B   6,B   4,B   0,B   3)     72.27 -0.000324   -0.59     71.69   
   137. D(B   5,B   4,B   0,B   1)     83.40  0.000420   -0.91     82.48   
   138. D(B   1,B   5,B   4,B   6)    -35.50 -0.000905    1.31    -34.19   
   139. D(B   1,B   5,B   4,B   0)    -66.82 -0.001223    1.78    -65.04   
   140. D(B  11,B   5,B   4,B   6)      8.56 -0.000113    0.92      9.48   
   141. D(B   4,B   5,B   1,B   8)    130.95 -0.000835    2.05    133.01   
   142. D(B   4,B   5,B   1,B   0)     15.00 -0.000673    0.13     15.13   
   143. D(B   4,B   5,B   1,B   7)     86.83 -0.000933    2.56     89.40   
   144. D(B   4,B   5,B   1,B   3)     -2.54 -0.000837   -0.04     -2.58   
   145. D(B  11,B   5,B   1,B   3)   -146.56  0.000236   -1.55   -148.11   
   146. D(B  11,B   5,B   1,B   9)      1.06  0.000458    1.15      2.21   
   147. D(B   4,B   5,B   1,B   9)    145.08 -0.000615    2.66    147.74   
   148. D(B   1,B   5,B   4,B  11)    -44.05 -0.000793    0.38    -43.67   
   149. D(B  11,B   5,B   4,B   0)    -22.76 -0.000431    1.40    -21.36   
   150. D(B   0,B   6,B   4,B   5)   -170.78 -0.000356    0.46   -170.31   
   151. D(B   4,B   6,B   2,B   8)    -29.85  0.000129    2.68    -27.17   
   152. D(B   4,B   6,B   2,B   9)    -36.99  0.000191    0.60    -36.39   
   153. D(B  11,B   6,B   0,B   7)    178.64  0.000454   -1.69    176.95   
   154. D(B  11,B   6,B   0,B   3)   -142.97  0.000337   -1.54   -144.51   
   155. D(B  11,B   6,B   0,B  10)    152.65 -0.000884   -0.43    152.22   
   156. D(B   0,B   6,B   2,B   8)    -36.26 -0.000094    3.17    -33.08   
   157. D(B  11,B   6,B   0,B   4)    -15.80  0.000145   -1.02    -16.83   
   158. D(B  11,B   6,B   2,B   9)    -69.49 -0.000217    5.80    -63.70   
   159. D(B   4,B   6,B   0,B   1)   -131.85  0.000185   -0.78   -132.62   
   160. D(B   4,B   6,B   0,B   9)   -142.11  0.000284   -0.09   -142.20   
   161. D(B   4,B   6,B   0,B   7)   -165.55  0.000309   -0.67   -166.22   
   162. D(B   0,B   6,B   4,B  11)   -163.15 -0.000298    1.15   -162.00   
   163. D(B   0,B   6,B   2,B   9)    -43.39 -0.000032    1.09    -42.30   
   164. D(B   4,B   6,B   0,B  10)    168.45 -0.001029    0.60    169.05   
   165. D(B   4,B   6,B   0,B   3)   -127.17  0.000192   -0.52   -127.68   
   166. D(B   2,B   6,B   4,B   5)    174.10 -0.000823    0.60    174.70   
   167. D(B   2,B   6,B   4,B   0)    -15.12 -0.000467    0.13    -14.98   
   168. D(B  11,B   6,B   4,B   5)     -7.63 -0.000058   -0.69     -8.32   
   169. D(B  11,B   6,B   4,B   0)    163.15  0.000298   -1.15    162.00   
   170. D(B   1,B   7,B   3,B   0)    157.42 -0.000031   -0.00    157.42   
   171. D(B   9,B   7,B   3,B   1)    -18.47  0.000038    0.56    -17.91   
   172. D(B   9,B   7,B   3,B   0)    138.95  0.000007    0.55    139.50   
   173. D(B   3,B   7,B   1,B   5)    -48.15 -0.000195   -0.87    -49.02   
   174. D(B   3,B   7,B   1,B   8)   -129.91 -0.000092   -1.13   -131.04   
   175. D(B   3,B   7,B   1,B   0)    -13.24 -0.000099   -0.01    -13.26   
   176. D(B   3,B   7,B   1,B   9)   -156.32  0.000010   -0.50   -156.83   
   177. D(B   9,B   7,B   1,B   5)    108.17 -0.000205   -0.37    107.81   
   178. D(B   9,B   7,B   1,B   8)     26.41 -0.000102   -0.62     25.79   
   179. D(B   9,B   7,B   1,B   0)    143.08 -0.000109    0.49    143.57   
   180. D(B   9,B   7,B   1,B   3)    156.32 -0.000010    0.50    156.83   
   181. D(B   3,B   7,B   0,B   9)     50.03 -0.000094   -0.60     49.43   
   182. D(B   3,B   7,B   0,B  10)   -122.32 -0.001421    5.94   -116.38   
   183. D(B   3,B   7,B   0,B   6)    124.67 -0.000251    1.23    125.90   
   184. D(B   9,B   7,B   0,B   1)    -33.57  0.000040    0.59    -32.99   
   185. D(B   9,B   7,B   0,B   3)    -50.03  0.000094    0.60    -49.43   
   186. D(B   9,B   7,B   0,B  10)   -172.35 -0.001328    6.54   -165.81   
   187. D(B   9,B   7,B   0,B   6)     74.64 -0.000158    1.83     76.47   
   188. D(B   0,B   7,B   3,B   1)   -157.42  0.000031    0.00   -157.42   
   189. D(B   9,B   7,B   0,B   4)     62.05 -0.000308    3.00     65.05   
   190. D(B   3,B   7,B   0,B   4)    112.08 -0.000402    2.40    114.47   
   191. D(B   1,B   8,B   2,B   6)      8.61  0.000076   -2.68      5.94   
   192. D(B   1,B   8,B   2,B   9)     23.38 -0.000278    1.92     25.31   
   193. D(B   9,B   8,B   2,B   6)    -14.77  0.000354   -4.60    -19.37   
   194. D(B   9,B   8,B   1,B   7)   -126.96 -0.000136   -2.02   -128.98   
   195. D(B   9,B   8,B   1,B   3)   -176.78 -0.000253   -1.77   -178.55   
   196. D(B   2,B   8,B   1,B   5)      2.59 -0.000392    1.39      3.98   
   197. D(B   2,B   8,B   1,B   0)     31.67 -0.000175    0.95     32.62   
   198. D(B   2,B   8,B   1,B   7)     84.98 -0.000051    0.46     85.44   
   199. D(B   2,B   8,B   1,B   3)     35.16 -0.000168    0.71     35.87   
   200. D(B   2,B   8,B   1,B   9)   -148.06  0.000085    2.48   -145.58   
   201. D(B   2,B   9,B   7,B   1)   -122.63  0.000363   -1.57   -124.20   
   202. D(B   2,B   9,B   7,B   0)    -78.55  0.000393   -2.17    -80.72   
   203. D(B   2,B   9,B   7,B   3)   -105.54  0.000278   -2.11   -107.64   
   204. D(B   8,B   9,B   2,B   6)    171.05  0.000331   -3.17    167.88   
   205. D(B   0,B   9,B   2,B   8)   -128.05 -0.000425    2.66   -125.40   
   206. D(B   0,B   9,B   2,B   6)     43.00 -0.000094   -0.51     42.49   
   207. D(B   7,B   9,B   2,B   6)     83.76  0.000132   -0.46     83.30   
   208. D(B   7,B   9,B   1,B   5)    -63.89 -0.000512    1.01    -62.88   
   209. D(B   7,B   9,B   1,B   8)    -36.34 -0.000005    1.90    -34.44   
   210. D(B   7,B   9,B   1,B   0)    -36.64 -0.000294    0.27    -36.37   
   211. D(B   7,B   9,B   1,B   3)    -32.06 -0.000319   -0.08    -32.14   
   212. D(B   2,B   9,B   1,B   5)    -12.09 -0.000333   -0.17    -12.26   
   213. D(B   2,B   9,B   1,B   8)     15.45  0.000173    0.72     16.17   
   214. D(B   2,B   9,B   1,B   0)     15.16 -0.000116   -0.91     14.25   
   215. D(B   2,B   9,B   1,B   7)     51.80  0.000179   -1.18     50.62   
   216. D(B   2,B   9,B   1,B   3)     19.73 -0.000140   -1.26     18.47   
   217. D(B   7,B   9,B   0,B   3)    108.50 -0.000158    1.33    109.83   
   218. D(B   7,B   9,B   0,B  10)      4.70 -0.000711    4.50      9.20   
   219. D(B   7,B   9,B   0,B   6)    -96.49 -0.000208    2.33    -94.16   
   220. D(B   7,B   9,B   2,B   8)    -87.29 -0.000199    2.71    -84.58   
   221. D(B   7,B   9,B   0,B   4)   -125.95 -0.000149    2.95   -123.00   
   222. D(B   2,B   9,B   0,B   1)   -163.53 -0.000067   -1.19   -164.72   
   223. D(B   2,B   9,B   0,B   7)     82.67  0.000208   -1.90     80.77   
   224. D(B   1,B   9,B   2,B   6)     31.28 -0.000001    0.35     31.63   
   225. D(B   2,B   9,B   0,B   3)   -168.83  0.000050   -0.57   -169.39   
   226. D(B   2,B   9,B   0,B  10)     87.37 -0.000503    2.61     89.97   
   227. D(B   2,B   9,B   0,B   6)    -13.82  0.000000    0.43    -13.39   
   228. D(B   0,B   9,B   7,B   3)    -26.98 -0.000115    0.06    -26.92   
   229. D(B   2,B   9,B   0,B   4)    -43.28  0.000060    1.05    -42.23   
   230. D(B   1,B   9,B   8,B   2)     46.30 -0.000297    3.51     49.80   
   231. D(B   0,B   9,B   8,B   1)     -0.21 -0.000205   -0.54     -0.75   
   232. D(B   0,B   9,B   8,B   2)     46.08 -0.000502    2.96     49.05   
   233. D(B   7,B   9,B   8,B   1)     36.44 -0.000064    0.28     36.73   
   234. D(B   7,B   9,B   8,B   2)     82.74 -0.000361    2.99     85.73   
   235. D(B   2,B   9,B   8,B   1)    -46.30  0.000297   -3.51    -49.80   
   236. D(B   8,B   9,B   7,B   0)   -101.62 -0.000014    1.80    -99.82   
   237. D(B   8,B   9,B   7,B   3)   -128.60 -0.000130    1.06   -127.54   
   238. D(B   0,B   9,B   7,B   1)    -44.08 -0.000030    0.60    -43.48   
   239. D(B   5,B  11,B   6,B   2)     40.07  0.000199   -3.82     36.25   
   240. D(B   5,B  11,B   6,B   4)      7.00  0.000055    0.57      7.57   
   241. D(B   5,B  11,B   6,B   0)     14.09 -0.000024    1.03     15.12   
   242. D(B   4,B  11,B   6,B   2)     33.07  0.000143   -4.40     28.68   
   243. D(B   4,B  11,B   6,B   0)      7.09 -0.000080    0.46      7.55   
   244. D(B   6,B  11,B   5,B   1)      9.37  0.000370   -1.67      7.70   
   245. D(B   6,B  11,B   5,B   4)    -14.29  0.000178   -1.72    -16.01   
   246. D(B   4,B  11,B   5,B   1)     23.66  0.000193    0.05     23.71   
   247. D(B   6,B  11,B   4,B   5)    165.99  0.000088   -1.68    164.31   
   248. D(B   6,B  11,B   4,B   0)    -23.43  0.000331   -1.78    -25.21   
   249. D(B   5,B  11,B   4,B   6)   -165.99 -0.000088    1.68   -164.31   
   250. D(B   5,B  11,B   4,B   0)    170.58  0.000244   -0.10    170.49   
    ----------------------------------------------------------------------------

Geometry step timings:
Preparation and reading OPT file:      0.000 s ( 0.219 %)
Internal coordinates            :      0.000 s ( 0.393 %)
B/P matrices and projection     :      0.005 s (27.121 %)
Hessian update/contruction      :      0.004 s (21.057 %)
Making the step                 :      0.007 s (37.287 %)
Converting the step to Cartesian:      0.001 s ( 3.220 %)
Storing new data                :      0.000 s ( 0.286 %)
Checking convergence            :      0.000 s ( 0.648 %)
Final printing                  :      0.002 s ( 9.758 %)
Total time                      :      0.020 s

Time for energy+gradient        :      0.053 s
Time for complete geometry iter :      0.075 s




    ----------------------------------------------------------------------------
                                  WARNING !!!
       The optimization did not converge but reached the maximum number of
       optimization cycles.
       Please check your results very carefully.
    ----------------------------------------------------------------------------



--------------------------------
SUGGESTED CITATIONS FOR THIS RUN
--------------------------------

Below you find a list of papers that are relevant to this ORCA run
We neither can nor want to force you to cite these papers, but we appreciate if you do
You receive ORCA, which is the product of decades of hard work by many enthusiastic individuals, for free
The only thing we kindly ask in return is that you cite our papers,
We deeply appreciate it, if you show your appreciation for ORCA by not just citing the generic ORCA reference.

Please note that relegating all ORCA citations to the supporting information does *not* help us.
SI sections are not indexed - citations you put there will not count into any citation statistics
But we need these citations in order to attract the funding resources that allow us to do what we are doing

Therefore, if you are a happy ORCA user, please consider citing a few of the papers listed below in the main body of your paper

In addition to the list printed below, the program has created the file random_d1.90_007_m1.bibtex that contains the list in bibtex format
You can import this file easily into all common literature databanks and citation aid programs

It goes without saying that in many instances, there are alternative algorithms to achieve similar
results as the ones you have gotten from ORCA. It is, of course, also the case that in some instances
ORCA just re-implements algorithms worked out by others. We are fully aware of that and we are also
fully appreciative of our colleagues work. Hence this citation list should not be read as indicating
that the listed papers, which are focused on our own work, are the only ones worth citing. It simply
meant to make it easier for users to cite ORCA specific papers. It is not a substitute for doing your
own literature research and citing the relevant literature in a scientifically appropriate manner.

List of essential papers. We consider these as the minimum necessary citations

  1. Bannwarth, C.; Ehlert, S.; Grimme, S.
     GFN2-xTB—An Accurate and Broadly Parametrized Self-Consistent Tight-Binding Quantum Chemical Method with Multipole Electrostatics and Density-Dependent Dispersion Contributions
     J. Chem. Theory Comput. 2019 15(3), 1652-1671
     doi.org/10.1021/acs.jctc.8b01176
  2. Neese, F.
     Software update: the ORCA program system, version 6.0
     WIRES Comput. Molec. Sci. 2025 15(1), e70019
     doi.org/10.1002/wcms.70019

List of papers to cite with high priority. The work reported in these papers was absolutely
necessary for this run to complete.
Our perspective: the developers of density functionals and basis sets usually get cited in chemistry papers
Good! But without the algorithms to do something with them, the functionals or basis sets would not do anything.
Hence, in our opinion, the algorithm design and method developments papers are equally worthy of getting cited

  1. Bannwarth, C.; Caldeweyher, E.; Ehlert, S.; Hansen, A.; Pracht, P.; Seibert, J.; Spicher, S.; Grimme, S.
     Extended tight-binding quantum chemistry methods
     WIRES Comput. Molec. Sci. 2020 11(2), e1493
     doi.org/10.1002/wcms.1493

List of suggested additional citations. These are papers that are important in the 'surrounding' of 
of this run, or papers that preceded the highly important papers. If you like your results we are grateful for a citation.

  1. Neese, F.
     The ORCA program system
     WIRES Comput. Molec. Sci. 2012 2(1), 73-78
     doi.org/10.1002/wcms.81
  2. Neese, F.
     Software update: the ORCA program system, version 4.0
     WIRES Comput. Molec. Sci. 2018 8(1), 1-6
     doi.org/10.1002/wcms.1327
  3. Neese, F.; Wennmohs, F.; Becker, U.; Riplinger, C.
     The ORCA quantum chemistry program package
     J. Chem. Phys. 2020 152(22), 224108
     doi.org/10.1063/5.0004608
  4. Neese, F.
     Software update: The ORCA program system—Version 5.0
     WIRES Comput. Molec. Sci. 2022 12(1), e1606
     doi.org/10.1002/wcms.1606

List of optional additional citations

  1. Neese, F.
     Approximate second-order SCF convergence for spin unrestricted wavefunctions
     Chem. Phys. Lett. 2000 325(1-3), 93-98
     doi.org/10.1016/s0009-2614(00)00662-x

Timings for individual modules:

Sum of individual times          ...        4.167 sec (=   0.069 min)
Geometry relaxation              ...        1.257 sec (=   0.021 min)  30.2 %
XTB module                       ...        2.910 sec (=   0.048 min)  69.8 %
                             ****ORCA TERMINATED NORMALLY****
TOTAL RUN TIME: 0 days 0 hours 0 minutes 4 seconds 654 msec
