
                                 *****************
                                 * O   R   C   A *
                                 *****************

                                            #,                                       
                                            ###                                      
                                            ####                                     
                                            #####                                    
                                            ######                                   
                                           ########,                                 
                                     ,,################,,,,,                         
                               ,,#################################,,                 
                          ,,##########################################,,             
                       ,#########################################, ''#####,          
                    ,#############################################,,   '####,        
                  ,##################################################,,,,####,       
                ,###########''''           ''''###############################       
              ,#####''   ,,,,##########,,,,          '''####'''          '####       
            ,##' ,,,,###########################,,,                        '##       
           ' ,,###''''                  '''############,,,                           
         ,,##''                                '''############,,,,        ,,,,,,###''
      ,#''                                            '''#######################'''  
     '                                                          ''''####''''         
             ,#######,   #######,   ,#######,      ##                                
            ,#'     '#,  ##    ##  ,#'     '#,    #''#        ,####,    ,#,          
            ##       ##  ##   ,#'  ##            #'  '#       #'       ,# #          
            ##       ##  #######   ##           ,######,      #####,      #          
            '#,     ,#'  ##    ##  '#,     ,#' ,#      #,     #,   #      #          
             '#######'   ##     ##  '#######'  #'      '#     '####' #    #          



                #########################################################
                #                        -***-                          #
                #          Department of theory and spectroscopy        #
                #                                                       #
                #                      Frank Neese                      #
                #                                                       #
                #     Directorship, Architecture, Infrastructure        #
                #                    SHARK, DRIVERS                     #
                #        Core code/Algorithms in most modules           #
                #                                                       #
                #        Max Planck Institute fuer Kohlenforschung      #
                #                Kaiser Wilhelm Platz 1                 #
                #                 D-45470 Muelheim/Ruhr                 #
                #                      Germany                          #
                #                                                       #
                #                  All rights reserved                  #
                #                        -***-                          #
                #########################################################


                         Program Version 6.1.1  -  RELEASE   -
                                (GIT: $487d211c$)
                          ($2025-11-21 10:33:24 +0100$)
                                                                         
                                  - NO-DMRG VERSION -                    
                                                                         


 With contributions from (in alphabetic order):
[Max-Planck-Institut fuer Kohlenforschung]                               
  Daniel Aravena         : Magnetic Suceptibility                        
  Michael Atanasov       : Ab Initio Ligand Field Theory (pilot matlab implementation)
  Alexander A. Auer      : GIAO ZORA, VPT2 properties, NMR spectrum      
  Ute Becker             : All parallelization in ORCA, NUMFREQ, NUMCALC 
  Giovanni Bistoni       : ED, misc. LED, open-shell LED, HFLD           
  Dmytro Bykov           : pre 5.0 version of the SCF Hessian            
  Marcos Casanova-Páez   : Triplet and SCS-CIS(D). UHF-(DLPNO)-IP/EA/STEOM-CCSD. UHF-CVS-IP/STEOM-CCSD   
  Vijay G. Chilkuri      : MRCI spin determinant printing, contributions to CSF-ICE 
  Pauline Colinet        : FMM embedding                                 
  Dipayan Datta          : RHF DLPNO-CCSD density                        
  Achintya Kumar Dutta   : EOM-CC, STEOM-CC                              
  Nicolas Foglia         : Exact transition moments, OPA infrastructure, MCD improvements    
  Dmitry Ganyushin       : Spin-Orbit,Spin-Spin,Magnetic field MRCI      
  Miquel Garcia-Rates    : C-PCM and meta-GGA Hessian, CCSD/C-PCM, Gaussian charge scheme 
  Tiago L. C. Gouveia    : GS-ROHF, GS-ROCIS                             
  Yang Guo               : DLPNO-NEVPT2, F12-NEVPT2, CIM, IAO-localization        
  Andreas Hansen         : Spin unrestricted coupled pair/coupled cluster methods 
  Ingolf Harden          : AUTO-CI MPn and infrastructure                
  Benjamin Helmich-Paris : MC-RPA, TRAH-(SCF,CASSCF), AVAS, COSX integrals, SCF dyn. polar., MC-PDFT, srDFT 
  Lee Huntington         : MR-EOM, pCC                                   
  Robert Izsak           : Overlap fitted RIJCOSX, COSX-SCS-MP3, EOM     
  Riya Kayal             : Wick's Theorem for AUTO-CI, AUTO-CI UHF-CCSDT 
  Emily Kempfer          : AUTO-CI RHF CISDT and CCSDT, approximate NEVPT4
  Christian Kollmar      : KDIIS, OOCD, Brueckner-CCSD(T), CCSD density, CASPT2, CASPT2-K, improved NEVPT2 
  Axel Koslowski         : Symmetry handling                             
  Simone Kossmann        : meta-GGA functionals, TD-DFT gradient, OOMP2, (MP2 Hessian; deprecated post 5.0) 
  Lucas Lang             : DCDCAS, Hyperfine gauge corrections, ICE-SOC+SSC
  Marvin Lechner         : AUTO-CI (C++ implementation), FIC-MRCC        
  Spencer Leger          : CASSCF response                               
  Dagmar Lenk            : GEPOL surface, SMD, ORCA-2-JSON               
  Dimitrios Liakos       : Extrapolation schemes; Compound Job, Property file
  Dimitrios Manganas     : Further ROCIS development; embedding schemes. LFT, Crystal Embedding 
  Dimitrios Pantazis     : SARC Basis sets                               
  Anastasios Papadopoulos: AUTO-CI, single reference methods and gradients 
  Taras Petrenko         : pre 6.0 DFT Hessian and TD-DFT gradient,  ECA, NRVS 
  Petra Pikulova         : Analytic Raman intensities                    
  Peter Pinski           : DLPNO-MP2, DLPNO-MP2 Gradient                 
  Shashank Vittal Rao    : ES-AILFT, MagRelax                            
  Christoph Reimann      : Effective Core Potentials                     
  Marius Retegan         : Local ZFS, SOC                                
  Christoph Riplinger    : Optimizer, TS searches, QM/MM, DLPNO-CCSD(T), (RO)-DLPNO pert. Triples 
  Michael Roemelt        : Original ROCIS implementation, recursive CI coupling coefficients
  Masaaki Saitow         : Open-shell DLPNO-CCSD energy and density      
  Barbara Sandhoefer     : DKH picture change effects                    
  Yorick L. A. Schmerwitz: GMF and freeze-and-release deltaSCF, NEB S-IDPP initial path                    
  Kantharuban Sivalingam : CASSCF convergence/infrastructure, NEVPT2, NEVPT3, NEVPT4(SD), FIC-MRCI and CEPA variants
  Bernardo de Souza      : ESD, SOC TD-DFT                               
  Georgi L. Stoychev     : AutoAux, RI-MP2 NMR, DLPNO-MP2 response, X2C  
  Van Anh Tran           : RI-MP2 g-tensors                              
  Willem Van den Heuvel  : Paramagnetic NMR                              
  Zikuan Wang            : NOTCH, Electric field optimization            
  Frank Wennmohs         : Technical directorship and infrastructure     
  Hang Xu                : AUTO-CI-Response properties                   
                                                                         
[FACCTs GmbH]                                                            
  Markus Bursch, Nicolas Foglia, Miquel Garcia-Rates, Ingolf Harden, Hagen Neugebauer, Anastasios Papadopoulos, 
  Christoph Riplinger, Bernardo de Souza, Georgi L. Stoychev                                                    
                                                                 
  APM, various basis sets, CI-OPT, improved COSX, DLPNO-Multilevel,           
  DOCKER, DRACO, updates on ESD, Fragmentator, GOAT, IRC, LR-CPCM, L-BFGS, MBIS, meta-GGA TD-DFT gradient, ML-optimized integration grids, 
  MM, NACMEs, nearIR, NEB, NEB-TS, NL-DFT gradient (VV10), 2- and 3-layer-ONIOM, interface openCOSMO-RS, QMMM,   
  Crystal-QMMM, RESP, rigid body optimization, SF, symmetry and pop. for TD-DFT, various functionals, SOLVATOR                                   
                                                                         
[Other institutions]                                                     
  V. Asgeirsson          : NEB                                           
  Christoph Bannwarth    : sTDA-DFT, sTD-DFT, PBEh-3c, B97-3c, D3        
  Giovanni Bistoni       : ETS/NOCV, ADLD/ADEX, COVALED                  
  Martin Brehm           : Molecular dynamics                            
  Ronald Cardenas        : ETS/NOCV                                      
  Martina Colucci        : COVALED                                       
  Sebastian Ehlert       : rSCAN, r2SCAN, r2SCAN-3c, D4, dhf basis sets  
  Marvin Friede          : D4 for Fr, Ra, Ac-Lr                          
  Lars Goerigk           : TD-DFT with DH, B97 family of functionals     
  Stefan Grimme          : VdW corrections, initial TS optimization, DFT functionals, gCP, sTDA/sTD-DF 
  Waldemar Hujo          : DFT-NL                                        
  H. Jonsson             : NEB                                           
  Holger Kruse           : gCP                                           
  Marcel Mueller         : wB97X-3c, vDZP basis set                      
  Hagen Neugebauer       : wr2SCAN, Native XTB                           
  Gianluca Regni         : ADLD/ADEX                                     
  Tobias Risthaus        : pre 6.0 range-separated hybrid DFT and stability analysis
  Lukas Wittmann         : regularized MP2, r2SCAN double-hybrids, wr2SCAN        
                                                                         
We gratefully acknowledge several colleagues who have allowed us to      
interface, adapt or use parts of their codes:                            
  Ed Valeev, F. Pavosevic, A. Kumar             : LibInt (2-el integral package), F12 methods 
  Garnet Chan, S. Sharma, J. Yang, R. Olivares  : DMRG                   
  Ulf Ekstrom                                   : XCFun DFT Library      
  Mihaly Kallay                                 : mrcc  (arbitrary order and MRCC methods)
  Frank Weinhold                                : gennbo (NPA and NBO analysis)           
  Simon Mueller                                 : openCOSMO-RS                            
  Christopher J. Cramer and Donald G. Truhlar   : smd solvation model                     
  S Lehtola, MJT Oliveira, MAL Marques          : LibXC Library                           
  Liviu Ungur et al                             : ANISO software                          


 Your calculation uses the libint2 library for the computation of 2-el integrals
 For citations please refer to: http://libint.valeyev.net

 Your ORCA version has been built with support for libXC version: 7.0.0
 For citations please refer to: https://libxc.gitlab.io

 This ORCA versions uses:
   CBLAS   interface :  Fast vector & matrix operations
   LAPACKE interface :  Fast linear algebra routines
   SCALAPACK package :  Parallel linear algebra routines
   Shared memory     :  Shared parallel matrices
   BLAS/LAPACK       :  OpenBLAS 0.3.29  USE64BITINT DYNAMIC_ARCH NO_AFFINITY Zen SINGLE_THREADED
        Core in use  :  Zen
   Copyright (c) 2011-2014, The OpenBLAS Project


  ***********************************
  * Starting time: Fri Apr 17 12:14:00 2026
  * Host name:     vmi3233575
  * Process ID:    330302
  * Working dir.:  /root/orca_b12_vps_pack/jobs/01_xtb/mult_1
  ***********************************

NOTE: MaxCore=500 MB was set to SCF,MP2,MDCI,CIPSI,MRCI,RASCI and CIS
      => If you want to overwrite this, your respective input block should be placed after the MaxCore statement


***************************************
The coordinates will be read from file: ../../../starts/random_d1.50_002.xyz
***************************************


Your calculation utilizes the semiempirical GFN2-xTB method
Please cite in your paper:
Bannwarth, C.; Ehlert S.; Grimme, S. J. Chem. Theory Comput. 2019, 15, 1652.
   

================================================================================

================================================================================
                                        WARNINGS
                       Please study these warnings very carefully!
================================================================================


WARNING: Geometry Optimization
  ===> : Switching off AutoStart
         For restart on a previous wavefunction, please use MOREAD

WARNING: Found dipole moment calculation with XTB calculation
  ===> : Switching off dipole moment calculation

Environment variable XTBEXE for xtb has been set!

================================================================================
                                       INPUT FILE
================================================================================
NAME = random_d1.50_002_m1.inp
|  1> ! GFN2-xTB TightSCF TightOpt
|  2> 
|  3> %pal
|  4>   nprocs 1
|  5> end
|  6> 
|  7> %maxcore 500
|  8> 
|  9> * xyzfile 0 1 ../../../starts/random_d1.50_002.xyz
| 10> 
| 11>                          ****END OF INPUT****
================================================================================

                       *****************************
                       * Geometry Optimization Run *
                       *****************************

Geometry optimization settings:
Update method            Update   .... BFGS
Choice of coordinates    CoordSys .... (2022) Redundant Internals
Initial Hessian          InHess   .... Almloef's Model
Max. no of cycles        MaxIter  .... 50

Convergence Tolerances:
Energy Change            TolE     ....  1.0000e-06 Eh
Max. Gradient            TolMAXG  ....  1.0000e-04 Eh/bohr
RMS Gradient             TolRMSG  ....  3.0000e-05 Eh/bohr
Max. Displacement        TolMAXD  ....  1.0000e-03 bohr
RMS Displacement         TolRMSD  ....  6.0000e-04 bohr
Strict Convergence                .... False

------------------------------------------------------------------------------
                        ORCA OPTIMIZATION COORDINATE SETUP
------------------------------------------------------------------------------

The optimization will be done in redundant internal coordinates (2022)
Making redundant internal coordinates   ...  (2022 redundants) done
Evaluating the initial hessian          ...  (Almloef) done
Evaluating the coordinates              ...  done
Calculating the B-matrix                .... done
Calculating the G-matrix                .... done
The number of degrees of freedom        ....  172

    -----------------------------------------------------------------
                    Redundant Internal Coordinates


    -----------------------------------------------------------------
         Definition                    Initial Value    Approx d2E/dq
    -----------------------------------------------------------------
      1. B(B   2,B   0)                  1.3123         1.115158   
      2. B(B   5,B   4)                  2.0496         0.074306   
      3. B(B   6,B   5)                  2.0541         0.073097   
      4. B(B   6,B   2)                  1.4910         0.578416   
      5. B(B   6,B   0)                  1.2337         1.488369   
      6. B(B   7,B   5)                  1.2906         1.207725   
      7. B(B   7,B   4)                  1.1562         1.978644   
      8. B(B   8,B   6)                  1.2763         1.272841   
      9. B(B   8,B   3)                  1.9514         0.106600   
     10. B(B   8,B   7)                  1.9980         0.089800   
     11. B(B   8,B   1)                  1.9394         0.111387   
     12. B(B   9,B   8)                  2.0345         0.078549   
     13. B(B   9,B   3)                  1.4264         0.733380   
     14. B(B  10,B   1)                  3.4524         0.010000   
     15. B(B  10,B   9)                  3.1467         0.010000   
     16. B(B  10,B   8)                  3.0328         0.010000   
     17. B(B  10,B   3)                  2.8431         0.010000   
     18. B(B  11,B   3)                  2.0827         0.065809   
     19. B(B  11,B   1)                  1.4116         0.774259   
     20. B(B  11,B  10)                  2.6657         0.010000   
     21. A(B   2,B   0,B   6)           71.6177         0.590373   
     22. A(B   8,B   1,B  11)           97.7981         0.345726   
     23. A(B  10,B   1,B  11)           45.7152         0.161967   
     24. A(B   8,B   1,B  10)           61.0494         0.136048   
     25. A(B   0,B   2,B   6)           51.7414         0.493815   
     26. A(B   8,B   3,B   9)           72.1836         0.340085   
     27. A(B   9,B   3,B  11)          143.4014         0.314117   
     28. A(B  10,B   3,B  11)           63.3347         0.158314   
     29. A(B   9,B   3,B  10)           88.4750         0.208621   
     30. A(B   8,B   3,B  10)           75.9545         0.166309   
     31. A(B   8,B   3,B  11)           78.2990         0.234491   
     32. A(B   5,B   4,B   7)           35.2178         0.378672   
     33. A(B   4,B   5,B   7)           31.1070         0.348048   
     34. A(B   6,B   5,B   7)           79.0446         0.347088   
     35. A(B   4,B   5,B   6)           94.5602         0.226305   
     36. A(B   0,B   6,B   2)           56.6408         0.521149   
     37. A(B   5,B   6,B   8)           98.4054         0.350174   
     38. A(B   2,B   6,B   5)           97.6640         0.307475   
     39. A(B   0,B   6,B   8)          114.3900         0.605609   
     40. A(B   0,B   6,B   5)          140.9220         0.359586   
     41. A(B   2,B   6,B   8)          101.7744         0.506116   
     42. A(B   4,B   7,B   5)          113.6752         0.633488   
     43. A(B   5,B   7,B   8)          100.6908         0.359393   
     44. A(B   4,B   7,B   8)          113.3445         0.391359   
     45. A(B   1,B   8,B   6)          122.0837         0.376299   
     46. A(B   1,B   8,B   9)          119.7076         0.241949   
     47. A(B   6,B   8,B   9)           91.5488         0.354460   
     48. A(B   3,B   8,B   9)           41.8728         0.240436   
     49. A(B   7,B   8,B  10)           92.5907         0.152512   
     50. A(B   7,B   8,B   9)          134.7989         0.234671   
     51. A(B   1,B   8,B   3)           77.8892         0.252894   
     52. A(B   9,B   8,B  10)           73.8366         0.150617   
     53. A(B   6,B   8,B  10)          152.9608         0.204740   
     54. A(B   3,B   8,B   7)          158.0145         0.245095   
     55. A(B   6,B   8,B   7)           81.6129         0.362626   
     56. A(B   3,B   8,B  10)           65.4240         0.155026   
     57. A(B   1,B   8,B  10)           84.9254         0.155686   
     58. A(B   1,B   8,B   7)          101.0822         0.246655   
     59. A(B   3,B   8,B   6)          117.8610         0.373456   
     60. A(B   3,B   9,B   8)           65.9436         0.323317   
     61. A(B   8,B   9,B  10)           67.7756         0.145049   
     62. A(B   3,B   9,B  10)           64.5804         0.181931   
     63. A(B   1,B  10,B   8)           34.0252         0.107953   
     64. A(B   1,B  10,B   3)           44.4197         0.111192   
     65. A(B   1,B  10,B  11)           22.2773         0.114719   
     66. A(B   8,B  10,B   9)           38.3878         0.113437   
     67. A(B   3,B  10,B   9)           26.9446         0.117614   
     68. A(B   9,B  10,B  11)           69.5335         0.122161   
     69. A(B   3,B  10,B   8)           38.6215         0.120456   
     70. A(B   8,B  10,B  11)           52.6605         0.125455   
     71. A(B   3,B  10,B  11)           44.2811         0.131685   
     72. A(B   1,B  10,B   9)           62.5682         0.106241   
     73. A(B   1,B  11,B   3)           86.5972         0.316898   
     74. A(B   3,B  11,B  10)           72.3843         0.169329   
     75. A(B   1,B  11,B  10)          112.0075         0.229343   
     76. D(B   6,B   5,B   4,B   7)     59.9207         0.010000   
     77. D(B   8,B   6,B   0,B   2)     88.2663         0.121468   
     78. D(B   5,B   6,B   0,B   2)    -56.1205         0.121468   
     79. D(B   0,B   6,B   5,B   7)    142.8909         0.010000   
     80. D(B   8,B   6,B   5,B   4)    -31.7787         0.010000   
     81. D(B   2,B   6,B   5,B   7)     98.4899         0.010000   
     82. D(B   5,B   6,B   2,B   0)    148.1252         0.015569   
     83. D(B   8,B   6,B   2,B   0)   -111.5799         0.015569   
     84. D(B   0,B   6,B   5,B   4)    115.8027         0.010000   
     85. D(B   2,B   6,B   5,B   4)     71.4017         0.010000   
     86. D(B   4,B   7,B   5,B   6)   -118.5254         0.075246   
     87. D(B   8,B   7,B   5,B   6)      3.0143         0.075246   
     88. D(B   8,B   7,B   4,B   5)   -114.1953         0.214282   
     89. D(B   8,B   7,B   5,B   4)    121.5398         0.075246   
     90. D(B   3,B   8,B   1,B  11)     37.7022         0.010000   
     91. D(B   7,B   8,B   3,B   9)    -93.2442         0.010000   
     92. D(B   1,B   8,B   6,B   2)      1.1714         0.112923   
     93. D(B   6,B   8,B   3,B   9)     57.0507         0.010000   
     94. D(B   6,B   8,B   3,B  11)   -144.8657         0.010000   
     95. D(B   1,B   8,B   3,B  10)    -89.9229         0.010000   
     96. D(B   1,B   8,B   3,B  11)    -24.7963         0.010000   
     97. D(B   1,B   8,B   3,B   9)    177.1201         0.010000   
     98. D(B   9,B   8,B   7,B   4)   -159.2391         0.010000   
     99. D(B   6,B   8,B   7,B   4)    116.9554         0.010000   
    100. D(B   3,B   8,B   7,B   4)    -89.3293         0.010000   
    101. D(B   6,B   8,B   3,B  10)    150.0076         0.010000   
    102. D(B   7,B   8,B   6,B   2)    -96.6965         0.112923   
    103. D(B   7,B   8,B   3,B  11)     64.8394         0.010000   
    104. D(B   7,B   8,B   1,B  11)   -119.8725         0.010000   
    105. D(B   1,B   8,B   6,B   0)    -57.3463         0.112923   
    106. D(B   3,B   8,B   7,B   5)    148.8976         0.010000   
    107. D(B   7,B   8,B   1,B  10)    -91.6531         0.010000   
    108. D(B   6,B   8,B   1,B  11)    153.1445         0.010000   
    109. D(B   3,B   8,B   6,B   2)     94.1116         0.112923   
    110. D(B   7,B   8,B   6,B   0)   -155.2142         0.112923   
    111. D(B   1,B   8,B   7,B   4)     -4.2577         0.010000   
    112. D(B   3,B   8,B   6,B   0)     35.5939         0.112923   
    113. D(B   6,B   8,B   1,B  10)   -178.6361         0.010000   
    114. D(B   3,B   8,B   1,B  10)     65.9216         0.010000   
    115. D(B   1,B   8,B   6,B   5)    100.8726         0.112923   
    116. D(B   9,B   8,B   1,B  11)     39.9149         0.010000   
    117. D(B   6,B   8,B   7,B   5)     -4.8178         0.010000   
    118. D(B   1,B   8,B   7,B   5)   -126.0309         0.010000   
    119. D(B   3,B   8,B   6,B   5)   -166.1872         0.112923   
    120. D(B  10,B   9,B   8,B   3)    -71.0102         0.010000   
    121. D(B  10,B   9,B   8,B   1)    -74.2525         0.010000   
    122. D(B   3,B   9,B   8,B  10)     71.0102         0.010000   
    123. D(B   3,B   9,B   8,B   7)    148.2140         0.010000   
    124. D(B   3,B   9,B   8,B   6)   -132.0849         0.010000   
    125. D(B   3,B   9,B   8,B   1)     -3.2423         0.010000   
    126. D(B  10,B   9,B   3,B  11)     37.9228         0.027472   
    127. D(B   8,B   9,B   3,B  10)    -75.7323         0.027472   
    128. D(B   8,B   9,B   3,B  11)    -37.8095         0.027472   
    129. D(B  10,B   9,B   8,B   6)    156.9048         0.010000   
    130. D(B  10,B   9,B   3,B   8)     75.7323         0.027472   
    131. D(B  11,B  10,B   3,B   8)     83.7826         0.010000   
    132. D(B   9,B  10,B   1,B  11)    103.1677         0.010000   
    133. D(B   9,B  10,B   1,B   8)    -35.9575         0.010000   
    134. D(B   8,B  10,B   1,B  11)    139.1252         0.010000   
    135. D(B   3,B  10,B   1,B  11)     78.0360         0.010000   
    136. D(B   3,B  10,B   1,B   8)    -61.0893         0.010000   
    137. D(B  11,B  10,B   3,B   9)    155.7928         0.010000   
    138. D(B  11,B  10,B   1,B   8)   -139.1252         0.010000   
    139. D(B   1,B  10,B   9,B   8)     31.9449         0.010000   
    140. D(B   1,B  10,B   9,B   3)    -40.9955         0.010000   
    141. D(B   8,B  10,B   9,B   3)    -72.9404         0.010000   
    142. D(B   3,B  10,B   9,B   8)     72.9404         0.010000   
    143. D(B  11,B  10,B   9,B   3)    -17.7924         0.010000   
    144. D(B   3,B  10,B   8,B   9)    -43.9495         0.010000   
    145. D(B   3,B  10,B   8,B   7)    179.8923         0.010000   
    146. D(B   3,B  10,B   8,B   6)   -103.5537         0.010000   
    147. D(B   3,B  10,B   8,B   1)     78.9890         0.010000   
    148. D(B  11,B  10,B   8,B   9)   -104.7570         0.010000   
    149. D(B  11,B  10,B   8,B   7)    119.0848         0.010000   
    150. D(B  11,B  10,B   8,B   6)   -164.3612         0.010000   
    151. D(B  11,B  10,B   8,B   3)    -60.8075         0.010000   
    152. D(B  11,B  10,B   8,B   1)     18.1814         0.010000   
    153. D(B  11,B  10,B   9,B   8)     55.1480         0.010000   
    154. D(B   1,B  10,B   3,B   8)     51.6978         0.010000   
    155. D(B   9,B  10,B   3,B  11)   -155.7928         0.010000   
    156. D(B   9,B  10,B   3,B   8)    -72.0102         0.010000   
    157. D(B   8,B  10,B   3,B  11)    -83.7826         0.010000   
    158. D(B   8,B  10,B   3,B   9)     72.0102         0.010000   
    159. D(B   3,B  11,B  10,B   1)     78.7258         0.010000   
    160. D(B   3,B  11,B  10,B   9)     11.4386         0.010000   
    161. D(B   1,B  11,B  10,B   9)    -67.2872         0.010000   
    162. D(B   1,B  11,B  10,B   8)    -27.4239         0.010000   
    163. D(B   1,B  11,B  10,B   3)    -78.7258         0.010000   
    164. D(B  10,B  11,B   3,B   9)    -43.4327         0.010000   
    165. D(B  10,B  11,B   3,B   8)    -80.0184         0.010000   
    166. D(B   1,B  11,B   3,B  10)    114.3770         0.010000   
    167. D(B   1,B  11,B   3,B   9)     70.9442         0.010000   
    168. D(B   1,B  11,B   3,B   8)     34.3586         0.010000   
    169. D(B   3,B  11,B  10,B   8)     51.3019         0.010000   
    170. D(B  10,B  11,B   1,B   8)     35.3084         0.028351   
    171. D(B   3,B  11,B   1,B  10)    -69.4500         0.028351   
    172. D(B   3,B  11,B   1,B   8)    -34.1416         0.028351   
    -----------------------------------------------------------------

Number of atoms                         .... 12
Number of degrees of freedom            .... 172


         *************************************************************
         *                GEOMETRY OPTIMIZATION CYCLE   1            *
         *************************************************************
---------------------------------
CARTESIAN COORDINATES (ANGSTROEM)
---------------------------------
  B    -0.277324   -2.093364   -0.504289
  B     1.202113    0.605259   -1.158615
  B     0.969846   -1.819625   -0.201357
  B    -1.182319    0.397869   -1.661203
  B     1.662675    0.618988    1.758652
  B     0.450244   -0.944649    2.293350
  B    -0.271750   -1.248222    0.394469
  B     0.571309    0.238753    1.792812
  B    -0.226644   -0.041074   -0.017478
  B    -2.122654   -0.160531   -0.745494
  B    -1.259739    2.807142   -0.153673
  B     0.484243    1.639455   -1.797177

----------------------------
CARTESIAN COORDINATES (A.U.)
----------------------------
  NO LB    ZA    FRAG    MASS        X           Y           Z
   0 B   5.0000    0    10.810   -0.524067   -3.955885   -0.952967
   1 B   5.0000    0    10.810    2.271664    1.143773   -2.189465
   2 B   5.0000    0    10.810    1.832743   -3.438592   -0.380509
   3 B   5.0000    0    10.810   -2.234258    0.751863   -3.139218
   4 B   5.0000    0    10.810    3.142001    1.169718    3.323372
   5 B   5.0000    0    10.810    0.850838   -1.785129    4.333803
   6 B   5.0000    0    10.810   -0.513533   -2.358798    0.745439
   7 B   5.0000    0    10.810    1.079618    0.451177    3.387924
   8 B   5.0000    0    10.810   -0.428296   -0.077619   -0.033028
   9 B   5.0000    0    10.810   -4.011235   -0.303359   -1.408779
  10 B   5.0000    0    10.810   -2.380563    5.304729   -0.290400
  11 B   5.0000    0    10.810    0.915087    3.098121   -3.396171

      -----------------------------------------------------------      
     |                   =====================                   |     
     |                           x T B                           |     
     |                   =====================                   |     
     |                         S. Grimme                         |     
     |          Mulliken Center for Theoretical Chemistry        |     
     |                    University of Bonn                     |     
      -----------------------------------------------------------      

   * xtb version 6.6.1 (unknown) compiled by 'builduser@buildhost' on 2023-08-07

   xtb is free software: you can redistribute it and/or modify it under
   the terms of the GNU Lesser General Public License as published by
   the Free Software Foundation, either version 3 of the License, or
   (at your option) any later version.
   
   xtb is distributed in the hope that it will be useful,
   but WITHOUT ANY WARRANTY; without even the implied warranty of
   MERCHANTABILITY or FITNESS FOR A PARTICULAR PURPOSE.  See the
   GNU Lesser General Public License for more details.
   
   Cite this work as:
   * C. Bannwarth, E. Caldeweyher, S. Ehlert, A. Hansen, P. Pracht,
     J. Seibert, S. Spicher, S. Grimme, WIREs Comput. Mol. Sci., 2020, 11,
     e01493. DOI: 10.1002/wcms.1493
   
   for GFN2-xTB:
   * C. Bannwarth, S. Ehlert and S. Grimme., J. Chem. Theory Comput., 2019,
     15, 1652-1671. DOI: 10.1021/acs.jctc.8b01176
   for GFN1-xTB:
   * S. Grimme, C. Bannwarth, P. Shushkov, J. Chem. Theory Comput., 2017,
     13, 1989-2009. DOI: 10.1021/acs.jctc.7b00118
   for GFN0-xTB:
   * P. Pracht, E. Caldeweyher, S. Ehlert, S. Grimme, ChemRxiv, 2019, preprint.
     DOI: 10.26434/chemrxiv.8326202.v1
   for GFN-FF:
   * S. Spicher and S. Grimme, Angew. Chem. Int. Ed., 2020, 59, 15665-15673.
     DOI: 10.1002/anie.202004239
   
   for ALPB and GBSA implicit solvation:
   * S. Ehlert, M. Stahn, S. Spicher, S. Grimme, J. Chem. Theory Comput.,
     2021, 17, 4250-4261. DOI: 10.1021/acs.jctc.1c00471
   
   for DFT-D4:
   * E. Caldeweyher, C. Bannwarth and S. Grimme, J. Chem. Phys., 2017,
     147, 034112. DOI: 10.1063/1.4993215
   * E. Caldeweyher, S. Ehlert, A. Hansen, H. Neugebauer, S. Spicher,
     C. Bannwarth and S. Grimme, J. Chem. Phys., 2019, 150, 154122.
     DOI: 10.1063/1.5090222
   * E. Caldeweyher, J.-M. Mewes, S. Ehlert and S. Grimme, Phys. Chem. Chem. Phys.
     2020, 22, 8499-8512. DOI: 10.1039/D0CP00502A
   
   for sTDA-xTB:
   * S. Grimme and C. Bannwarth, J. Chem. Phys., 2016, 145, 054103.
     DOI: 10.1063/1.4959605
   
   in the mass-spec context:
   * V. Asgeirsson, C. Bauer and S. Grimme, Chem. Sci., 2017, 8, 4879.
     DOI: 10.1039/c7sc00601b
   * J. Koopman and S. Grimme, ACS Omega 2019, 4, 12, 15120-15133.
     DOI: 10.1021/acsomega.9b02011
   
   for metadynamics refer to:
   * S. Grimme, J. Chem. Theory Comput., 2019, 155, 2847-2862
     DOI: 10.1021/acs.jctc.9b00143
   
   for SPH calculations refer to:
   * S. Spicher and S. Grimme, J. Chem. Theory Comput., 2021, 17, 1701-1714
     DOI: 10.1021/acs.jctc.0c01306
   
   with help from (in alphabetical order)
   P. Atkinson, C. Bannwarth, F. Bohle, G. Brandenburg, E. Caldeweyher
   M. Checinski, S. Dohm, S. Ehlert, S. Ehrlich, I. Gerasimov, C. Hölzer
   A. Katbashev, J. Koopman, C. Lavigne, S. Lehtola, F. März, M. Müller,
   F. Musil, H. Neugebauer, J. Pisarek, C. Plett, P. Pracht, F. Pultar,
   J. Seibert, P. Shushkov, S. Spicher, M. Stahn, M. Steiner, T. Strunk,
   J. Stückrath, T. Rose, and J. Unsleber
   
 * started run on 2026/04/17 at 12:14:01.081     

           -------------------------------------------------
          |                Calculation Setup                |
           -------------------------------------------------

          program call               : /usr/bin/xtb random_d1.50_002_m1_XTB.xyz --grad -c 0 -u 0 -P 1 --namespace random_d1.50_002_m1 --input random_d1.50_002_m1_XTB.input.tmp --acc 0.200000
          calculation namespace      : random_d1.50_002_m1
          coordinate file            : random_d1.50_002_m1_XTB.xyz
          omp threads                :                     1

   ID    Z sym.   atoms
    1    5 B      1-12

molecular fragmentation (1/2 indicates fragments):
121211112222
# atoms in fragment 1/2:     6     6
 fragment masses (1/2) :       64.87       64.87
CMA distance (Bohr)    :   5.187
constraining FC (au)   :  0.0500

           -------------------------------------------------
          |                 G F N 2 - x T B                 |
           -------------------------------------------------

        Reference                      10.1021/acs.jctc.8b01176
      * Hamiltonian:
        H0-scaling (s, p, d)           1.850000    2.230000    2.230000
        zeta-weighting                 0.500000
      * Dispersion:
        s8                             2.700000
        a1                             0.520000
        a2                             5.000000
        s9                             5.000000
      * Repulsion:
        kExp                           1.500000    1.000000
        rExp                           1.000000
      * Coulomb:
        alpha                          2.000000
        third order                    shell-resolved
        anisotropic                    true
        a3                             3.000000
        a5                             4.000000
        cn-shift                       1.200000
        cn-exp                         4.000000
        max-rad                        5.000000


          ...................................................
          :                      SETUP                      :
          :.................................................:
          :  # basis functions                  48          :
          :  # atomic orbitals                  48          :
          :  # shells                           24          :
          :  # electrons                        36          :
          :  max. iterations                   250          :
          :  Hamiltonian                  GFN2-xTB          :
          :  restarted?                      false          :
          :  GBSA solvation                  false          :
          :  PC potential                    false          :
          :  electronic temp.          300.0000000     K    :
          :  accuracy                    0.2000000          :
          :  -> integral cutoff          0.3198970E+02      :
          :  -> integral neglect         0.2000000E-08      :
          :  -> SCF convergence          0.2000000E-06 Eh   :
          :  -> wf. convergence          0.2000000E-04 e    :
          :  Broyden damping             0.4000000          :
          ...................................................

 iter      E             dE          RMSdq      gap      omega  full diag
   1    -11.5008355 -0.115008E+02  0.197E+01    0.21       0.0  T
   2      0.2598223  0.117607E+02  0.224E+01    0.45       1.0  T
   3      7.8325803  0.757276E+01  0.258E+01    0.57       1.0  T
   4     -4.4684995 -0.123011E+02  0.187E+01    0.31       1.0  T
   5     -7.1820739 -0.271357E+01  0.160E+01    0.28       1.0  T
   6    -12.5116599 -0.532959E+01  0.106E+01    0.25       1.0  T
   7    -12.8769645 -0.365305E+00  0.983E+00    0.28       1.0  T
   8    -13.1498480 -0.272883E+00  0.945E+00    0.33       1.0  T
   9    -13.4980053 -0.348157E+00  0.778E+00    0.13       1.0  T
  10    -13.4759746  0.220307E-01  0.800E+00    0.11       1.0  T
  11    -13.2991928  0.176782E+00  0.795E+00    0.23       1.0  T
  12    -13.5680704 -0.268878E+00  0.573E+00    0.13       1.0  T
  13    -13.1522647  0.415806E+00  0.722E+00    0.11       1.0  T
  14    -13.0602625  0.920021E-01  0.744E+00    0.35       1.0  T
  15    -13.2873571 -0.227095E+00  0.724E+00    0.32       1.0  T
  16    -13.3537514 -0.663943E-01  0.705E+00    0.29       1.0  T
  17    -13.3429061  0.108453E-01  0.710E+00    0.29       1.0  T
  18    -13.6041668 -0.261261E+00  0.598E+00    0.14       1.0  T
  19    -13.7801873 -0.176020E+00  0.480E+00    0.08       1.0  T
  20    -13.7711714  0.901590E-02  0.477E+00    0.10       1.0  T
  21    -13.8191342 -0.479629E-01  0.363E+00    0.10       1.0  T
  22    -13.9008975 -0.817632E-01  0.277E+00    0.13       1.0  T
  23    -13.8958350  0.506246E-02  0.298E+00    0.15       1.0  T
  24    -13.8890290  0.680603E-02  0.311E+00    0.16       1.0  T
  25    -13.9543220 -0.652930E-01  0.129E+00    0.12       1.0  T
  26    -13.8694331  0.848888E-01  0.330E+00    0.15       1.0  T
  27    -13.9643331 -0.949000E-01  0.190E+00    0.15       1.0  T
  28    -13.9700948 -0.576171E-02  0.153E+00    0.15       1.0  T
  29    -13.9354418  0.346531E-01  0.224E+00    0.17       1.0  T
  30    -13.9180039  0.174379E-01  0.253E+00    0.18       1.0  T
  31    -13.9588378 -0.408339E-01  0.170E+00    0.16       1.0  T
  32    -13.9825281 -0.236903E-01  0.784E-01    0.15       1.0  T
  33    -13.9836001 -0.107203E-02  0.655E-01    0.14       1.0  T
  34    -13.9829893  0.610826E-03  0.683E-01    0.15       1.0  T
  35    -13.9859086 -0.291932E-02  0.378E-01    0.14       1.0  T
  36    -13.9870369 -0.112832E-02  0.196E-01    0.14       1.0  T
  37    -13.9872680 -0.231044E-03  0.126E-01    0.13       1.0  T
  38    -13.9873645 -0.965746E-04  0.630E-02    0.13       1.0  T
  39    -13.9873801 -0.155494E-04  0.557E-02    0.13       1.0  T
  40    -13.9873915 -0.113539E-04  0.315E-02    0.13       1.0  T
  41    -13.9873962 -0.479661E-05  0.198E-02    0.13       1.5  T
  42    -13.9873962  0.416570E-08  0.168E-02    0.13       1.7  T
  43    -13.9873970 -0.722165E-06  0.110E-02    0.13       2.6  T
  44    -13.9873970  0.668969E-08  0.910E-03    0.13       3.2  T
  45    -13.9873978 -0.829869E-06  0.179E-03    0.13      16.1  T
  46    -13.9873978 -0.562618E-08  0.155E-03    0.13      18.6  T
  47    -13.9873978 -0.463212E-08  0.108E-03    0.13      26.7  T
  48    -13.9873978  0.625730E-08  0.121E-03    0.13      23.8  T
  49    -13.9873978 -0.104526E-07  0.685E-04    0.13      42.1  T
  50    -13.9873978 -0.285075E-08  0.414E-04    0.13      69.8  T
  51    -13.9873978 -0.133502E-08  0.168E-04    0.13     171.7  T
  52    -13.9873978 -0.123567E-09  0.829E-05    0.13     348.4  T

   *** convergence criteria satisfied after 52 iterations ***

         #    Occupation            Energy/Eh            Energy/eV
      -------------------------------------------------------------
         1        2.0000           -0.4474221             -12.1750
       ...           ...                  ...                  ...
        12        2.0000           -0.2849167              -7.7530
        13        2.0000           -0.2791770              -7.5968
        14        2.0000           -0.2718007              -7.3961
        15        2.0000           -0.2555628              -6.9542
        16        2.0000           -0.2426916              -6.6040
        17        2.0000           -0.2369979              -6.4490
        18        1.8513           -0.2208224              -6.0089 (HOMO)
        19        0.1486           -0.2160302              -5.8785 (LUMO)
        20        0.0001           -0.2093908              -5.6978
        21                         -0.2018150              -5.4917
        22                         -0.1970709              -5.3626
        23                         -0.1917912              -5.2189
       ...                                ...                  ...
        48                          4.5129870             122.8046
      -------------------------------------------------------------
                  HL-Gap            0.0047921 Eh            0.1304 eV
             Fermi-level           -0.2184268 Eh           -5.9437 eV

 SCC (total)                   0 d,  0 h,  0 min,  0.067 sec
 SCC setup                      ...        0 min,  0.000 sec (  0.236%)
 Dispersion                     ...        0 min,  0.000 sec (  0.146%)
 classical contributions        ...        0 min,  0.000 sec (  0.054%)
 integral evaluation            ...        0 min,  0.003 sec (  4.399%)
 iterations                     ...        0 min,  0.057 sec ( 85.152%)
 molecular gradient             ...        0 min,  0.006 sec (  9.561%)
 printout                       ...        0 min,  0.000 sec (  0.409%)

         :::::::::::::::::::::::::::::::::::::::::::::::::::::
         ::                     SUMMARY                     ::
         :::::::::::::::::::::::::::::::::::::::::::::::::::::
         :: total energy             -13.080092758053 Eh    ::
         :: gradient norm              1.583052444380 Eh/a0 ::
         :: HOMO-LUMO gap              0.130400214909 eV    ::
         ::.................................................::
         :: SCC energy               -13.987397807633 Eh    ::
         :: -> isotropic ES            0.065409939069 Eh    ::
         :: -> anisotropic ES          0.001012103591 Eh    ::
         :: -> anisotropic XC         -0.024793023883 Eh    ::
         :: -> dispersion             -0.017497687605 Eh    ::
         :: repulsion energy           0.907268751108 Eh    ::
         :: add. restraining           0.000000000000 Eh    ::
         :: total charge              -0.000000000017 e     ::
         :::::::::::::::::::::::::::::::::::::::::::::::::::::


Property printout bound to 'properties.out'

           -------------------------------------------------
          | TOTAL ENERGY              -13.080092758053 Eh   |
          | GRADIENT NORM               1.583052444380 Eh/α |
          | HOMO-LUMO GAP               0.130400214909 eV   |
           -------------------------------------------------

------------------------------------------------------------------------
 * finished run on 2026/04/17 at 12:14:01.162     
------------------------------------------------------------------------
 total:
 * wall-time:     0 d,  0 h,  0 min,  0.080 sec
 *  cpu-time:     0 d,  0 h,  0 min,  0.080 sec
 * ratio c/w:     0.999 speedup
 SCF:
 * wall-time:     0 d,  0 h,  0 min,  0.068 sec
 *  cpu-time:     0 d,  0 h,  0 min,  0.068 sec
 * ratio c/w:     1.000 speedup


-------------------------   --------------------
FINAL SINGLE POINT ENERGY       -13.080092758050
-------------------------   --------------------


-------------
DIPOLE MOMENT
-------------
                                X             Y             Z
Total Dipole Moment    :      0.83500      -0.87500      -0.07200
                        -----------------------------------------
Magnitude (a.u.)       :      1.21162
Magnitude (Debye)      :      3.07970


------------------
CARTESIAN GRADIENT
------------------

   1   B   :    0.235671880    0.435047740    0.426058720
   2   B   :   -0.006117937    0.056131961   -0.048090957
   3   B   :   -0.321753904   -0.030470014    0.008964816
   4   B   :   -0.060052833   -0.064538926    0.008990011
   5   B   :   -0.795015734   -0.282479656    0.022337212
   6   B   :    0.042969665    0.295198246   -0.106437493
   7   B   :    0.114308852    0.039191163   -0.575360105
   8   B   :    0.760966300   -0.034811488    0.093624391
   9   B   :   -0.033142725   -0.417851322    0.163907295
  10   B   :    0.001629268    0.008661592   -0.033323859
  11   B   :   -0.022155210    0.031718771    0.032738001
  12   B   :    0.082692379   -0.035798066    0.006591969

Difference to translation invariance:
           :    0.0000000000    0.0000000000   -0.0000000000

Difference to rotation invariance:
           :    0.0000000001   -0.0000000389   -0.0000000147

Norm of the Cartesian gradient     ...    1.5830524444
RMS gradient                       ...    0.2638420741
MAX gradient                       ...    0.7950157344
------------------------------------------------------------------------------
                         ORCA GEOMETRY RELAXATION STEP
------------------------------------------------------------------------------

Reading the OPT-File                    .... done
Getting information on internals        .... done
Copying old internal coords+grads       .... done
Making the new internal coordinates     .... (2022 redundants) done
Validating the new internal coordinates .... (2022 redundants) done
Calculating the B-matrix                .... done
Calculating the G,G- and P matrices     .... done
Transforming gradient to internals      .... done
Projecting the internal gradient        .... done
Number of atoms                         ....  12
Number of internal coordinates          .... 172
Current Energy                          ....   -13.080092758 Eh
Current gradient norm                   ....     1.583052444 Eh/bohr
Maximum allowed component of the step   ....  0.300
Current trust radius                    ....  0.300
Evaluating the initial hessian          ....  (Almloef) done
Projecting the Hessian                  .... done
Forming the augmented Hessian           .... done
Diagonalizing the augmented Hessian     .... done
Last element of RFO vector              ....  0.862361895
Lowest eigenvalues of augmented Hessian:
 -0.569717937  0.015918438  0.022836580  0.023480356  0.028401394
Length of the computed step             ....  0.587099653
Warning: the length of the step is outside the trust region - taking restricted step instead
The input lambda is                     ....     0.014077
   iter:   5  x=    0.007202  g=11911.294162 f(x)=    32.471021
   iter:  10  x=   -0.167178  g=    9.321350 f(x)=     1.028896
   iter:  15  x=   -2.129315  g=    0.061417 f(x)=     0.006605
The output lambda is                    ....    -2.135225 (19 iterations)
The final length of the internal step   ....  0.300000000
Converting the step to Cartesian space:
 Initial RMS(Int)=    0.0228747855
Transforming coordinates:
 Iter   0:  RMS(Cart)=    0.0492100130 RMS(Int)=    0.0228854368
 Iter   5:  RMS(Cart)=    0.0000000068 RMS(Int)=    0.0000000039
done
Storing new coordinates                 .... done

                                .--------------------.
          ----------------------|Geometry convergence|-------------------------
          Item                value                   Tolerance       Converged
          ---------------------------------------------------------------------
          RMS gradient        0.0754833888            0.0000300000      NO
          MAX gradient        0.5089964690            0.0001000000      NO
          RMS step            0.0228747855            0.0006000000      NO
          MAX step            0.1478157685            0.0010000000      NO
          -------------------------------------------------------------------------
          ........................................................
          Max(Bonds)      0.0782      Max(Angles)    2.06
          Max(Dihed)        1.07      Max(Improp)    0.00
          ---------------------------------------------------------------------

The optimization has not yet converged - more geometry cycles are needed


    ---------------------------------------------------------------------------
                         Redundant Internal Coordinates
                            (Angstroem and degrees)

        Definition                    Value    dE/dq     Step     New-Value
    ----------------------------------------------------------------------------
     1. B(B   2,B   0)                1.3123 -0.241906  0.0393    1.3516   
     2. B(B   5,B   4)                2.0496 -0.355671  0.0612    2.1108   
     3. B(B   6,B   5)                2.0541 -0.018758  0.0024    2.0565   
     4. B(B   6,B   2)                1.4910 -0.181349  0.0316    1.5226   
     5. B(B   6,B   0)                1.2337 -0.447014  0.0688    1.3025   
     6. B(B   7,B   5)                1.2906 -0.107391  0.0249    1.3155   
     7. B(B   7,B   4)                1.1562 -0.508996  0.0782    1.2344   
     8. B(B   8,B   6)                1.2763 -0.412246  0.0671    1.3434   
     9. B(B   8,B   3)                1.9514 -0.004549 -0.0000    1.9514   
    10. B(B   8,B   7)                1.9980  0.030293 -0.0049    1.9931   
    11. B(B   8,B   1)                1.9394  0.024426 -0.0062    1.9332   
    12. B(B   9,B   8)                2.0345  0.007096 -0.0021    2.0324   
    13. B(B   9,B   3)                1.4264 -0.020313  0.0041    1.4305   
    14. B(B  10,B   1)                3.4524  0.003122 -0.0012    3.4512   
    15. B(B  10,B   9)                3.1467  0.010032 -0.0022    3.1445   
    16. B(B  10,B   8)                3.0328 -0.008537  0.0011    3.0340   
    17. B(B  10,B   3)                2.8431  0.022210 -0.0048    2.8383   
    18. B(B  11,B   3)                2.0827  0.040258 -0.0089    2.0738   
    19. B(B  11,B   1)                1.4116 -0.042188  0.0086    1.4202   
    20. B(B  11,B  10)                2.6657  0.031757 -0.0073    2.6584   
    21. A(B   2,B   0,B   6)           71.62  0.110025   -1.70     69.92   
    22. A(B   8,B   1,B  11)           97.80  0.000658   -0.04     97.76   
    23. A(B  10,B   1,B  11)           45.72  0.005280   -0.13     45.58   
    24. A(B   8,B   1,B  10)           61.05 -0.003639    0.08     61.13   
    25. A(B   0,B   2,B   6)           51.74 -0.115158    1.80     53.54   
    26. A(B   8,B   3,B   9)           72.18  0.007623   -0.17     72.02   
    27. A(B   9,B   3,B  11)          143.40 -0.000051   -0.01    143.39   
    28. A(B  10,B   3,B  11)           63.33  0.000979   -0.03     63.30   
    29. A(B   9,B   3,B  10)           88.48 -0.000430    0.01     88.49   
    30. A(B   8,B   3,B  10)           75.95 -0.007156    0.16     76.11   
    31. A(B   8,B   3,B  11)           78.30 -0.010131    0.21     78.50   
    32. A(B   5,B   4,B   7)           35.22 -0.003624    0.21     35.43   
    33. A(B   4,B   5,B   7)           31.11 -0.117097    1.85     32.96   
    34. A(B   6,B   5,B   7)           79.04 -0.026884    0.44     79.49   
    35. A(B   4,B   5,B   6)           94.56 -0.097191    1.56     96.12   
    36. A(B   0,B   6,B   2)           56.64  0.005133   -0.10     56.54   
    37. A(B   5,B   6,B   8)           98.41  0.061695   -0.96     97.44   
    38. A(B   2,B   6,B   5)           97.66 -0.005008    0.15     97.81   
    39. A(B   0,B   6,B   8)          114.39 -0.042411    0.65    115.04   
    40. A(B   0,B   6,B   5)          140.92 -0.008224    0.12    141.04   
    41. A(B   2,B   6,B   8)          101.77  0.002083   -0.19    101.58   
    42. A(B   4,B   7,B   5)          113.68  0.120721   -2.06    111.61   
    43. A(B   5,B   7,B   8)          100.69 -0.058260    0.84    101.53   
    44. A(B   4,B   7,B   8)          113.34 -0.026324    0.51    113.86   
    45. A(B   1,B   8,B   6)          122.08  0.005525   -0.14    121.94   
    46. A(B   1,B   8,B   9)          119.71 -0.001656    0.09    119.79   
    47. A(B   6,B   8,B   9)           91.55 -0.012119    0.20     91.74   
    48. A(B   3,B   8,B   9)           41.87 -0.006214    0.15     42.03   
    49. A(B   7,B   8,B  10)           92.59 -0.006862    0.05     92.64   
    50. A(B   7,B   8,B   9)          134.80  0.011547   -0.26    134.54   
    51. A(B   1,B   8,B   3)           77.89  0.004382   -0.06     77.83   
    52. A(B   9,B   8,B  10)           73.84  0.003945   -0.07     73.77   
    53. A(B   6,B   8,B  10)          152.96 -0.004587    0.11    153.07   
    54. A(B   3,B   8,B   7)          158.01  0.001491   -0.12    157.89   
    55. A(B   6,B   8,B   7)           81.61  0.018520   -0.24     81.38   
    56. A(B   3,B   8,B  10)           65.42  0.008382   -0.17     65.25   
    57. A(B   1,B   8,B  10)           84.93 -0.000507    0.03     84.96   
    58. A(B   1,B   8,B   7)          101.08 -0.011693    0.18    101.26   
    59. A(B   3,B   8,B   6)          117.86 -0.017939    0.32    118.18   
    60. A(B   3,B   9,B   8)           65.94 -0.001410    0.01     65.96   
    61. A(B   8,B   9,B  10)           67.78 -0.004976    0.10     67.88   
    62. A(B   3,B   9,B  10)           64.58  0.005124   -0.12     64.46   
    63. A(B   1,B  10,B   8)           34.03  0.004146   -0.11     33.92   
    64. A(B   1,B  10,B   3)           44.42  0.003710   -0.08     44.34   
    65. A(B   1,B  10,B  11)           22.28 -0.006952    0.15     22.43   
    66. A(B   8,B  10,B   9)           38.39  0.001032   -0.03     38.36   
    67. A(B   3,B  10,B   9)           26.94 -0.004694    0.10     27.05   
    68. A(B   9,B  10,B  11)           69.53 -0.000343   -0.00     69.53   
    69. A(B   3,B  10,B   8)           38.62 -0.001226    0.01     38.64   
    70. A(B   8,B  10,B  11)           52.66 -0.002419    0.03     52.69   
    71. A(B   3,B  10,B  11)           44.28  0.004307   -0.10     44.18   
    72. A(B   1,B  10,B   9)           62.57  0.003329   -0.08     62.49   
    73. A(B   1,B  11,B   3)           86.60  0.006285   -0.13     86.47   
    74. A(B   3,B  11,B  10)           72.38 -0.005286    0.14     72.52   
    75. A(B   1,B  11,B  10)          112.01  0.001672   -0.02    111.98   
    76. D(B   6,B   5,B   4,B   7)     59.92  0.008211   -0.14     59.78   
    77. D(B   8,B   6,B   0,B   2)     88.27  0.033629   -0.72     87.54   
    78. D(B   5,B   6,B   0,B   2)    -56.12 -0.011850    0.05    -56.07   
    79. D(B   0,B   6,B   5,B   7)    142.89 -0.030750    0.50    143.39   
    80. D(B   8,B   6,B   5,B   4)    -31.78  0.041090   -0.57    -32.35   
    81. D(B   2,B   6,B   5,B   7)     98.49 -0.041192    0.58     99.07   
    82. D(B   5,B   6,B   2,B   0)    148.13 -0.010826    0.10    148.23   
    83. D(B   8,B   6,B   2,B   0)   -111.58  0.052290   -0.90   -112.47   
    84. D(B   0,B   6,B   5,B   4)    115.80  0.063411   -0.98    114.82   
    85. D(B   2,B   6,B   5,B   4)     71.40  0.052970   -0.91     70.50   
    86. D(B   4,B   7,B   5,B   6)   -118.53  0.032586   -0.54   -119.06   
    87. D(B   8,B   7,B   5,B   6)      3.01  0.023579   -0.41      2.61   
    88. D(B   8,B   7,B   4,B   5)   -114.20  0.011496   -0.04   -114.24   
    89. D(B   8,B   7,B   5,B   4)    121.54 -0.009007    0.13    121.67   
    90. D(B   3,B   8,B   1,B  11)     37.70  0.005188   -0.11     37.59   
    91. D(B   7,B   8,B   3,B   9)    -93.24 -0.016363    0.25    -92.99   
    92. D(B   1,B   8,B   6,B   2)      1.17  0.018191   -0.32      0.85   
    93. D(B   6,B   8,B   3,B   9)     57.05 -0.002877    0.07     57.12   
    94. D(B   6,B   8,B   3,B  11)   -144.87  0.000656   -0.02   -144.88   
    95. D(B   1,B   8,B   3,B  10)    -89.92  0.004364   -0.10    -90.02   
    96. D(B   1,B   8,B   3,B  11)    -24.80  0.008004   -0.19    -24.98   
    97. D(B   1,B   8,B   3,B   9)    177.12  0.004471   -0.11    177.01   
    98. D(B   9,B   8,B   7,B   4)   -159.24  0.042284   -0.69   -159.93   
    99. D(B   6,B   8,B   7,B   4)    116.96  0.043805   -0.80    116.15   
   100. D(B   3,B   8,B   7,B   4)    -89.33  0.052145   -0.90    -90.22   
   101. D(B   6,B   8,B   3,B  10)    150.01 -0.002984    0.07    150.08   
   102. D(B   7,B   8,B   6,B   2)    -96.70  0.021011   -0.40    -97.10   
   103. D(B   7,B   8,B   3,B  11)     64.84 -0.012830    0.17     65.01   
   104. D(B   7,B   8,B   1,B  11)   -119.87  0.002663    0.03   -119.85   
   105. D(B   1,B   8,B   6,B   0)    -57.35  0.010301   -0.12    -57.46   
   106. D(B   3,B   8,B   7,B   5)    148.90 -0.042730    0.79    149.69   
   107. D(B   7,B   8,B   1,B  10)    -91.65  0.006141   -0.04    -91.69   
   108. D(B   6,B   8,B   1,B  11)    153.14 -0.013084    0.22    153.36   
   109. D(B   3,B   8,B   6,B   2)     94.11  0.015272   -0.27     93.84   
   110. D(B   7,B   8,B   6,B   0)   -155.21  0.013122   -0.20   -155.41   
   111. D(B   1,B   8,B   7,B   4)     -4.26  0.034952   -0.62     -4.87   
   112. D(B   3,B   8,B   6,B   0)     35.59  0.007382   -0.07     35.53   
   113. D(B   6,B   8,B   1,B  10)   -178.64 -0.009606    0.15   -178.48   
   114. D(B   3,B   8,B   1,B  10)     65.92  0.008666   -0.18     65.74   
   115. D(B   1,B   8,B   6,B   5)    100.87  0.027983   -0.43    100.44   
   116. D(B   9,B   8,B   1,B  11)     39.91  0.001449   -0.02     39.89   
   117. D(B   6,B   8,B   7,B   5)     -4.82 -0.051071    0.89     -3.93   
   118. D(B   1,B   8,B   7,B   5)   -126.03 -0.059924    1.07   -124.96   
   119. D(B   3,B   8,B   6,B   5)   -166.19  0.025064   -0.39   -166.57   
   120. D(B  10,B   9,B   8,B   3)    -71.01 -0.007833    0.17    -70.84   
   121. D(B  10,B   9,B   8,B   1)    -74.25 -0.002798    0.05    -74.20   
   122. D(B   3,B   9,B   8,B  10)     71.01  0.007833   -0.17     70.84   
   123. D(B   3,B   9,B   8,B   7)    148.21 -0.004242   -0.04    148.18   
   124. D(B   3,B   9,B   8,B   6)   -132.08  0.008073   -0.13   -132.22   
   125. D(B   3,B   9,B   8,B   1)     -3.24  0.005035   -0.12     -3.36   
   126. D(B  10,B   9,B   3,B  11)     37.92  0.001521   -0.02     37.90   
   127. D(B   8,B   9,B   3,B  10)    -75.73  0.006973   -0.15    -75.89   
   128. D(B   8,B   9,B   3,B  11)    -37.81  0.008494   -0.18    -37.99   
   129. D(B  10,B   9,B   8,B   6)    156.90  0.000240    0.04    156.94   
   130. D(B  10,B   9,B   3,B   8)     75.73 -0.006973    0.15     75.89   
   131. D(B  11,B  10,B   3,B   8)     83.78 -0.008284    0.16     83.95   
   132. D(B   9,B  10,B   1,B  11)    103.17 -0.002056    0.04    103.21   
   133. D(B   9,B  10,B   1,B   8)    -35.96 -0.000981    0.05    -35.91   
   134. D(B   8,B  10,B   1,B  11)    139.13 -0.001074   -0.01    139.12   
   135. D(B   3,B  10,B   1,B  11)     78.04  0.006786   -0.16     77.87   
   136. D(B   3,B  10,B   1,B   8)    -61.09  0.007860   -0.16    -61.25   
   137. D(B  11,B  10,B   3,B   9)    155.79 -0.000687   -0.00    155.79   
   138. D(B  11,B  10,B   1,B   8)   -139.13  0.001074    0.01   -139.12   
   139. D(B   1,B  10,B   9,B   8)     31.94  0.003861   -0.12     31.83   
   140. D(B   1,B  10,B   9,B   3)    -41.00  0.005064   -0.12    -41.12   
   141. D(B   8,B  10,B   9,B   3)    -72.94  0.001203   -0.01    -72.95   
   142. D(B   3,B  10,B   9,B   8)     72.94 -0.001203    0.01     72.95   
   143. D(B  11,B  10,B   9,B   3)    -17.79 -0.001949    0.03    -17.76   
   144. D(B   3,B  10,B   8,B   9)    -43.95  0.007779   -0.18    -44.13   
   145. D(B   3,B  10,B   8,B   7)    179.89 -0.006165    0.10    179.99   
   146. D(B   3,B  10,B   8,B   6)   -103.55  0.023502   -0.38   -103.93   
   147. D(B   3,B  10,B   8,B   1)     78.99  0.005033   -0.08     78.91   
   148. D(B  11,B  10,B   8,B   9)   -104.76 -0.001814    0.02   -104.74   
   149. D(B  11,B  10,B   8,B   7)    119.08 -0.015757    0.30    119.38   
   150. D(B  11,B  10,B   8,B   6)   -164.36  0.013909   -0.18   -164.54   
   151. D(B  11,B  10,B   8,B   3)    -60.81 -0.009593    0.20    -60.61   
   152. D(B  11,B  10,B   8,B   1)     18.18 -0.004560    0.12     18.30   
   153. D(B  11,B  10,B   9,B   8)     55.15 -0.003152    0.04     55.19   
   154. D(B   1,B  10,B   3,B   8)     51.70  0.004222   -0.11     51.58   
   155. D(B   9,B  10,B   3,B  11)   -155.79  0.000687    0.00   -155.79   
   156. D(B   9,B  10,B   3,B   8)    -72.01 -0.007597    0.17    -71.84   
   157. D(B   8,B  10,B   3,B  11)    -83.78  0.008284   -0.16    -83.95   
   158. D(B   8,B  10,B   3,B   9)     72.01  0.007597   -0.17     71.84   
   159. D(B   3,B  11,B  10,B   1)     78.73  0.004050   -0.08     78.65   
   160. D(B   3,B  11,B  10,B   9)     11.44 -0.001533    0.04     11.48   
   161. D(B   1,B  11,B  10,B   9)    -67.29 -0.005583    0.12    -67.17   
   162. D(B   1,B  11,B  10,B   8)    -27.42 -0.004788    0.09    -27.33   
   163. D(B   1,B  11,B  10,B   3)    -78.73 -0.004050    0.08    -78.65   
   164. D(B  10,B  11,B   3,B   9)    -43.43 -0.001372    0.01    -43.42   
   165. D(B  10,B  11,B   3,B   8)    -80.02  0.003378   -0.08    -80.10   
   166. D(B   1,B  11,B   3,B  10)    114.38  0.000534   -0.00    114.37   
   167. D(B   1,B  11,B   3,B   9)     70.94 -0.000838    0.01     70.96   
   168. D(B   1,B  11,B   3,B   8)     34.36  0.003912   -0.09     34.27   
   169. D(B   3,B  11,B  10,B   8)     51.30 -0.000738    0.01     51.32   
   170. D(B  10,B  11,B   1,B   8)     35.31 -0.000483    0.03     35.34   
   171. D(B   3,B  11,B   1,B  10)    -69.45  0.003321   -0.09    -69.54   
   172. D(B   3,B  11,B   1,B   8)    -34.14  0.002838   -0.06    -34.20   
    ----------------------------------------------------------------------------

Geometry step timings:
Preparation and reading OPT file:      0.000 s ( 0.199 %)
Internal coordinates            :      0.000 s ( 0.382 %)
B/P matrices and projection     :      0.002 s (12.178 %)
Hessian update/contruction      :      0.002 s ( 8.955 %)
Making the step                 :      0.014 s (69.069 %)
Converting the step to Cartesian:      0.000 s ( 1.510 %)
Storing new data                :      0.000 s ( 0.363 %)
Checking convergence            :      0.000 s ( 0.343 %)
Final printing                  :      0.001 s ( 7.003 %)
Total time                      :      0.020 s

Time for energy+gradient        :      0.092 s
Time for complete geometry iter :      0.114 s

         *************************************************************
         *                GEOMETRY OPTIMIZATION CYCLE   2            *
         *************************************************************
---------------------------------
CARTESIAN COORDINATES (ANGSTROEM)
---------------------------------
  B    -0.281631   -2.193200   -0.524987
  B     1.194564    0.624467   -1.153218
  B     0.988734   -1.867076   -0.197690
  B    -1.182125    0.425775   -1.668976
  B     1.718245    0.651111    1.773545
  B     0.449716   -0.949428    2.305372
  B    -0.280325   -1.289177    0.412940
  B     0.548146    0.257174    1.789917
  B    -0.234964   -0.018911   -0.021872
  B    -2.127222   -0.136526   -0.754113
  B    -1.268307    2.830161   -0.163239
  B     0.475170    1.665629   -1.797680

----------------------------
CARTESIAN COORDINATES (A.U.)
----------------------------
  NO LB    ZA    FRAG    MASS        X           Y           Z
   0 B   5.0000    0    10.810   -0.532206   -4.144547   -0.992081
   1 B   5.0000    0    10.810    2.257398    1.180072   -2.179266
   2 B   5.0000    0    10.810    1.868436   -3.528263   -0.373580
   3 B   5.0000    0    10.810   -2.233892    0.804599   -3.153907
   4 B   5.0000    0    10.810    3.247013    1.230422    3.351514
   5 B   5.0000    0    10.810    0.849839   -1.794159    4.356521
   6 B   5.0000    0    10.810   -0.529738   -2.436192    0.780344
   7 B   5.0000    0    10.810    1.035846    0.485988    3.382453
   8 B   5.0000    0    10.810   -0.444018   -0.035736   -0.041331
   9 B   5.0000    0    10.810   -4.019867   -0.257997   -1.425066
  10 B   5.0000    0    10.810   -2.396753    5.348228   -0.308478
  11 B   5.0000    0    10.810    0.897941    3.147583   -3.397123

      -----------------------------------------------------------      
     |                   =====================                   |     
     |                           x T B                           |     
     |                   =====================                   |     
     |                         S. Grimme                         |     
     |          Mulliken Center for Theoretical Chemistry        |     
     |                    University of Bonn                     |     
      -----------------------------------------------------------      

   * xtb version 6.6.1 (unknown) compiled by 'builduser@buildhost' on 2023-08-07

   xtb is free software: you can redistribute it and/or modify it under
   the terms of the GNU Lesser General Public License as published by
   the Free Software Foundation, either version 3 of the License, or
   (at your option) any later version.
   
   xtb is distributed in the hope that it will be useful,
   but WITHOUT ANY WARRANTY; without even the implied warranty of
   MERCHANTABILITY or FITNESS FOR A PARTICULAR PURPOSE.  See the
   GNU Lesser General Public License for more details.
   
   Cite this work as:
   * C. Bannwarth, E. Caldeweyher, S. Ehlert, A. Hansen, P. Pracht,
     J. Seibert, S. Spicher, S. Grimme, WIREs Comput. Mol. Sci., 2020, 11,
     e01493. DOI: 10.1002/wcms.1493
   
   for GFN2-xTB:
   * C. Bannwarth, S. Ehlert and S. Grimme., J. Chem. Theory Comput., 2019,
     15, 1652-1671. DOI: 10.1021/acs.jctc.8b01176
   for GFN1-xTB:
   * S. Grimme, C. Bannwarth, P. Shushkov, J. Chem. Theory Comput., 2017,
     13, 1989-2009. DOI: 10.1021/acs.jctc.7b00118
   for GFN0-xTB:
   * P. Pracht, E. Caldeweyher, S. Ehlert, S. Grimme, ChemRxiv, 2019, preprint.
     DOI: 10.26434/chemrxiv.8326202.v1
   for GFN-FF:
   * S. Spicher and S. Grimme, Angew. Chem. Int. Ed., 2020, 59, 15665-15673.
     DOI: 10.1002/anie.202004239
   
   for ALPB and GBSA implicit solvation:
   * S. Ehlert, M. Stahn, S. Spicher, S. Grimme, J. Chem. Theory Comput.,
     2021, 17, 4250-4261. DOI: 10.1021/acs.jctc.1c00471
   
   for DFT-D4:
   * E. Caldeweyher, C. Bannwarth and S. Grimme, J. Chem. Phys., 2017,
     147, 034112. DOI: 10.1063/1.4993215
   * E. Caldeweyher, S. Ehlert, A. Hansen, H. Neugebauer, S. Spicher,
     C. Bannwarth and S. Grimme, J. Chem. Phys., 2019, 150, 154122.
     DOI: 10.1063/1.5090222
   * E. Caldeweyher, J.-M. Mewes, S. Ehlert and S. Grimme, Phys. Chem. Chem. Phys.
     2020, 22, 8499-8512. DOI: 10.1039/D0CP00502A
   
   for sTDA-xTB:
   * S. Grimme and C. Bannwarth, J. Chem. Phys., 2016, 145, 054103.
     DOI: 10.1063/1.4959605
   
   in the mass-spec context:
   * V. Asgeirsson, C. Bauer and S. Grimme, Chem. Sci., 2017, 8, 4879.
     DOI: 10.1039/c7sc00601b
   * J. Koopman and S. Grimme, ACS Omega 2019, 4, 12, 15120-15133.
     DOI: 10.1021/acsomega.9b02011
   
   for metadynamics refer to:
   * S. Grimme, J. Chem. Theory Comput., 2019, 155, 2847-2862
     DOI: 10.1021/acs.jctc.9b00143
   
   for SPH calculations refer to:
   * S. Spicher and S. Grimme, J. Chem. Theory Comput., 2021, 17, 1701-1714
     DOI: 10.1021/acs.jctc.0c01306
   
   with help from (in alphabetical order)
   P. Atkinson, C. Bannwarth, F. Bohle, G. Brandenburg, E. Caldeweyher
   M. Checinski, S. Dohm, S. Ehlert, S. Ehrlich, I. Gerasimov, C. Hölzer
   A. Katbashev, J. Koopman, C. Lavigne, S. Lehtola, F. März, M. Müller,
   F. Musil, H. Neugebauer, J. Pisarek, C. Plett, P. Pracht, F. Pultar,
   J. Seibert, P. Shushkov, S. Spicher, M. Stahn, M. Steiner, T. Strunk,
   J. Stückrath, T. Rose, and J. Unsleber
   
 * started run on 2026/04/17 at 12:14:01.196     

           -------------------------------------------------
          |                Calculation Setup                |
           -------------------------------------------------

          program call               : /usr/bin/xtb random_d1.50_002_m1_XTB.xyz --grad -c 0 -u 0 -P 1 --namespace random_d1.50_002_m1 --input random_d1.50_002_m1_XTB.input.tmp --acc 0.200000
          calculation namespace      : random_d1.50_002_m1
          coordinate file            : random_d1.50_002_m1_XTB.xyz
          omp threads                :                     1

   ID    Z sym.   atoms
    1    5 B      1-12

molecular fragmentation (1/2 indicates fragments):
111111111121
# atoms in fragment 1/2:    11     1
 fragment masses (1/2) :      118.92       10.81
CMA distance (Bohr)    :   6.402
constraining FC (au)   :  0.0500

           -------------------------------------------------
          |                 G F N 2 - x T B                 |
           -------------------------------------------------

        Reference                      10.1021/acs.jctc.8b01176
      * Hamiltonian:
        H0-scaling (s, p, d)           1.850000    2.230000    2.230000
        zeta-weighting                 0.500000
      * Dispersion:
        s8                             2.700000
        a1                             0.520000
        a2                             5.000000
        s9                             5.000000
      * Repulsion:
        kExp                           1.500000    1.000000
        rExp                           1.000000
      * Coulomb:
        alpha                          2.000000
        third order                    shell-resolved
        anisotropic                    true
        a3                             3.000000
        a5                             4.000000
        cn-shift                       1.200000
        cn-exp                         4.000000
        max-rad                        5.000000

q/qsh data taken from xtbrestart
CAMM data taken from xtbrestart

          ...................................................
          :                      SETUP                      :
          :.................................................:
          :  # basis functions                  48          :
          :  # atomic orbitals                  48          :
          :  # shells                           24          :
          :  # electrons                        36          :
          :  max. iterations                   250          :
          :  Hamiltonian                  GFN2-xTB          :
          :  restarted?                       true          :
          :  GBSA solvation                  false          :
          :  PC potential                    false          :
          :  electronic temp.          300.0000000     K    :
          :  accuracy                    0.2000000          :
          :  -> integral cutoff          0.3198970E+02      :
          :  -> integral neglect         0.2000000E-08      :
          :  -> SCF convergence          0.2000000E-06 Eh   :
          :  -> wf. convergence          0.2000000E-04 e    :
          :  Broyden damping             0.4000000          :
          ...................................................

 iter      E             dE          RMSdq      gap      omega  full diag
   1    -13.9378834 -0.139379E+02  0.122E+00    0.15       0.0  T
   2    -13.4095985  0.528285E+00  0.589E+00    0.20       1.0  T
   3    -13.7237592 -0.314161E+00  0.339E+00    0.23       1.0  T
   4    -13.8659220 -0.142163E+00  0.246E+00    0.18       1.0  T
   5    -13.9093004 -0.433784E-01  0.146E+00    0.20       1.0  T
   6    -13.8340917  0.752087E-01  0.275E+00    0.07       1.0  T
   7    -13.9233991 -0.893075E-01  0.114E+00    0.11       1.0  T
   8    -13.9414864 -0.180872E-01  0.557E-01    0.15       1.0  T
   9    -13.9444746 -0.298824E-02  0.389E-01    0.15       1.0  T
  10    -13.9435218  0.952842E-03  0.504E-01    0.15       1.0  T
  11    -13.9423850  0.113674E-02  0.582E-01    0.15       1.0  T
  12    -13.9426925 -0.307451E-03  0.553E-01    0.15       1.0  T
  13    -13.9422687  0.423731E-03  0.562E-01    0.15       1.0  T
  14    -13.9454713 -0.320251E-02  0.224E-01    0.14       1.0  T
  15    -13.9454575  0.137321E-04  0.236E-01    0.14       1.0  T
  16    -13.9454517  0.581239E-05  0.223E-01    0.14       1.0  T
  17    -13.9458355 -0.383783E-03  0.952E-02    0.14       1.0  T
  18    -13.9458353  0.211175E-06  0.810E-02    0.14       1.0  T
  19    -13.9458073  0.279421E-04  0.923E-02    0.14       1.0  T
  20    -13.9458211 -0.138030E-04  0.893E-02    0.14       1.0  T
  21    -13.9458569 -0.357216E-04  0.651E-02    0.14       1.0  T
  22    -13.9458951 -0.382439E-04  0.249E-02    0.14       1.2  T
  23    -13.9459016 -0.649804E-05  0.622E-03    0.14       4.6  T
  24    -13.9459018 -0.176028E-06  0.413E-03    0.14       7.0  T
  25    -13.9459019 -0.117245E-06  0.104E-03    0.14      27.9  T
  26    -13.9459018  0.800345E-07  0.300E-03    0.14       9.6  T
  27    -13.9459019 -0.726209E-07  0.983E-04    0.14      29.4  T
  28    -13.9459019 -0.800406E-08  0.434E-04    0.14      66.6  T
  29    -13.9459019 -0.194899E-08  0.432E-05    0.14     668.1  T
  30    -13.9459019 -0.178080E-10  0.204E-05    0.14    1416.3  T

   *** convergence criteria satisfied after 30 iterations ***

         #    Occupation            Energy/Eh            Energy/eV
      -------------------------------------------------------------
         1        2.0000           -0.4439344             -12.0801
       ...           ...                  ...                  ...
        12        2.0000           -0.2863939              -7.7932
        13        2.0000           -0.2797446              -7.6122
        14        2.0000           -0.2714069              -7.3854
        15        2.0000           -0.2565411              -6.9808
        16        2.0000           -0.2445289              -6.6540
        17        2.0000           -0.2389443              -6.5020
        18        1.8680           -0.2216371              -6.0311 (HOMO)
        19        0.1284           -0.2165749              -5.8933 (LUMO)
        20        0.0036           -0.2131175              -5.7992
        21                         -0.2029120              -5.5215
        22                         -0.2001590              -5.4466
        23                         -0.1935473              -5.2667
       ...                                ...                  ...
        48                          3.1975768              87.0105
      -------------------------------------------------------------
                  HL-Gap            0.0050623 Eh            0.1378 eV
             Fermi-level           -0.2191201 Eh           -5.9626 eV

 SCC (total)                   0 d,  0 h,  0 min,  0.045 sec
 SCC setup                      ...        0 min,  0.000 sec (  0.379%)
 Dispersion                     ...        0 min,  0.000 sec (  0.235%)
 classical contributions        ...        0 min,  0.000 sec (  0.079%)
 integral evaluation            ...        0 min,  0.003 sec (  6.644%)
 iterations                     ...        0 min,  0.036 sec ( 78.509%)
 molecular gradient             ...        0 min,  0.006 sec ( 13.408%)
 printout                       ...        0 min,  0.000 sec (  0.684%)

         :::::::::::::::::::::::::::::::::::::::::::::::::::::
         ::                     SUMMARY                     ::
         :::::::::::::::::::::::::::::::::::::::::::::::::::::
         :: total energy             -13.313240994937 Eh    ::
         :: gradient norm              0.952512575929 Eh/a0 ::
         :: HOMO-LUMO gap              0.137751445318 eV    ::
         ::.................................................::
         :: SCC energy               -13.945901897568 Eh    ::
         :: -> isotropic ES            0.066763535381 Eh    ::
         :: -> anisotropic ES          0.001013593859 Eh    ::
         :: -> anisotropic XC         -0.024902277059 Eh    ::
         :: -> dispersion             -0.018049095050 Eh    ::
         :: repulsion energy           0.632618688177 Eh    ::
         :: add. restraining           0.000000000000 Eh    ::
         :: total charge              -0.000000000000 e     ::
         :::::::::::::::::::::::::::::::::::::::::::::::::::::


Property printout bound to 'properties.out'

           -------------------------------------------------
          | TOTAL ENERGY              -13.313240994937 Eh   |
          | GRADIENT NORM               0.952512575929 Eh/α |
          | HOMO-LUMO GAP               0.137751445318 eV   |
           -------------------------------------------------

------------------------------------------------------------------------
 * finished run on 2026/04/17 at 12:14:01.255     
------------------------------------------------------------------------
 total:
 * wall-time:     0 d,  0 h,  0 min,  0.059 sec
 *  cpu-time:     0 d,  0 h,  0 min,  0.058 sec
 * ratio c/w:     0.987 speedup
 SCF:
 * wall-time:     0 d,  0 h,  0 min,  0.045 sec
 *  cpu-time:     0 d,  0 h,  0 min,  0.045 sec
 * ratio c/w:     0.985 speedup


-------------------------   --------------------
FINAL SINGLE POINT ENERGY       -13.313240994940
-------------------------   --------------------


-------------
DIPOLE MOMENT
-------------
                                X             Y             Z
Total Dipole Moment    :      0.79300      -1.00100      -0.04200
                        -----------------------------------------
Magnitude (a.u.)       :      1.27774
Magnitude (Debye)      :      3.24775


------------------
CARTESIAN GRADIENT
------------------

   1   B   :    0.154661847    0.270140088    0.247908738
   2   B   :    0.001417388    0.049105012   -0.044353027
   3   B   :   -0.219798544   -0.027601512    0.013051181
   4   B   :   -0.057429159   -0.061072451    0.005426962
   5   B   :   -0.435615232   -0.151946830    0.003958389
   6   B   :    0.032722000    0.233536753   -0.077326338
   7   B   :    0.085210604    0.035616505   -0.353179207
   8   B   :    0.415110089   -0.100594424    0.089910487
   9   B   :   -0.028748035   -0.257655437    0.110578021
  10   B   :   -0.002583012    0.007513586   -0.031194781
  11   B   :   -0.022664051    0.032264973    0.032707270
  12   B   :    0.077716106   -0.029306263    0.002512305

Difference to translation invariance:
           :   -0.0000000000   -0.0000000000   -0.0000000000

Difference to rotation invariance:
           :   -0.0000000032   -0.0000000079    0.0000000036

Norm of the Cartesian gradient     ...    0.9525125759
RMS gradient                       ...    0.1587520960
MAX gradient                       ...    0.4356152321
------------------------------------------------------------------------------
                         ORCA GEOMETRY RELAXATION STEP
------------------------------------------------------------------------------

Reading the OPT-File                    .... done
Getting information on internals        .... done
Copying old internal coords+grads       .... done
Making the new internal coordinates     .... (2022 redundants) done
Validating the new internal coordinates .... (2022 redundants) done
Calculating the B-matrix                .... done
Calculating the G,G- and P matrices     .... done
[...]
        21                         -0.1875621              -5.1038
        22                         -0.1624360              -4.4201
        23                         -0.1569788              -4.2716
       ...                                ...                  ...
        48                          1.3934996              37.9191
      -------------------------------------------------------------
                  HL-Gap            0.0214725 Eh            0.5843 eV
             Fermi-level           -0.2186036 Eh           -5.9485 eV

 SCC (total)                   0 d,  0 h,  0 min,  0.026 sec
 SCC setup                      ...        0 min,  0.000 sec (  0.588%)
 Dispersion                     ...        0 min,  0.000 sec (  0.473%)
 classical contributions        ...        0 min,  0.000 sec (  0.144%)
 integral evaluation            ...        0 min,  0.003 sec ( 10.699%)
 iterations                     ...        0 min,  0.018 sec ( 67.246%)
 molecular gradient             ...        0 min,  0.005 sec ( 19.594%)
 printout                       ...        0 min,  0.000 sec (  1.153%)

         :::::::::::::::::::::::::::::::::::::::::::::::::::::
         ::                     SUMMARY                     ::
         :::::::::::::::::::::::::::::::::::::::::::::::::::::
         :: total energy             -14.215795365199 Eh    ::
         :: gradient norm              0.080524983239 Eh/a0 ::
         :: HOMO-LUMO gap              0.584297749264 eV    ::
         ::.................................................::
         :: SCC energy               -14.482565638352 Eh    ::
         :: -> isotropic ES            0.094461523386 Eh    ::
         :: -> anisotropic ES          0.000340456389 Eh    ::
         :: -> anisotropic XC         -0.035559086439 Eh    ::
         :: -> dispersion             -0.012051035732 Eh    ::
         :: repulsion energy           0.266781165196 Eh    ::
         :: add. restraining           0.000000000000 Eh    ::
         :: total charge              -0.000000001086 e     ::
         :::::::::::::::::::::::::::::::::::::::::::::::::::::


Property printout bound to 'properties.out'

           -------------------------------------------------
          | TOTAL ENERGY              -14.215795365199 Eh   |
          | GRADIENT NORM               0.080524983239 Eh/α |
          | HOMO-LUMO GAP               0.584297749264 eV   |
           -------------------------------------------------

------------------------------------------------------------------------
 * finished run on 2026/04/17 at 12:14:05.007     
------------------------------------------------------------------------
 total:
 * wall-time:     0 d,  0 h,  0 min,  0.039 sec
 *  cpu-time:     0 d,  0 h,  0 min,  0.039 sec
 * ratio c/w:     0.999 speedup
 SCF:
 * wall-time:     0 d,  0 h,  0 min,  0.026 sec
 *  cpu-time:     0 d,  0 h,  0 min,  0.026 sec
 * ratio c/w:     0.999 speedup


-------------------------   --------------------
FINAL SINGLE POINT ENERGY       -14.215795365200
-------------------------   --------------------


-------------
DIPOLE MOMENT
-------------
                                X             Y             Z
Total Dipole Moment    :     -0.01200       0.23500       1.11100
                        -----------------------------------------
Magnitude (a.u.)       :      1.13565
Magnitude (Debye)      :      2.88658


------------------
CARTESIAN GRADIENT
------------------

   1   B   :   -0.001308456    0.017664498   -0.031847761
   2   B   :   -0.001895286    0.006231985   -0.007280443
   3   B   :    0.005422319   -0.015297007    0.020531738
   4   B   :    0.004401670    0.006270081   -0.023735800
   5   B   :    0.004195967    0.006410802    0.012930811
   6   B   :    0.002387316   -0.007474492   -0.026106834
   7   B   :   -0.003157013   -0.003619807    0.030821367
   8   B   :   -0.007864040    0.004381791   -0.004039607
   9   B   :    0.000529797   -0.004146733   -0.010161844
  10   B   :   -0.001924848   -0.008108673    0.027195700
  11   B   :    0.000991570    0.005277230    0.023546475
  12   B   :   -0.001778996   -0.007589676   -0.011853802

Difference to translation invariance:
           :   -0.0000000000   -0.0000000000   -0.0000000000

Difference to rotation invariance:
           :   -0.0000000939   -0.0000000754    0.0000000235

Norm of the Cartesian gradient     ...    0.0805249832
RMS gradient                       ...    0.0134208305
MAX gradient                       ...    0.0318477605
------------------------------------------------------------------------------
                         ORCA GEOMETRY RELAXATION STEP
------------------------------------------------------------------------------

Reading the OPT-File                    .... done
Getting information on internals        .... done
Copying old internal coords+grads       .... done
Making the new internal coordinates     .... (2022 redundants) done
Validating the new internal coordinates .... (2022 redundants) done
Calculating the B-matrix                .... done
Calculating the G,G- and P matrices     .... done
Transforming gradient to internals      .... done
Projecting the internal gradient        .... done
Number of atoms                         ....  12
Number of internal coordinates          ....  77
Current Energy                          ....   -14.215795365 Eh
Current gradient norm                   ....     0.080524983 Eh/bohr
Maximum allowed component of the step   ....  0.300
Current trust radius                    ....  0.311
Updating the Hessian (BFGS)             .... done
Forming the augmented Hessian           .... done
Diagonalizing the augmented Hessian     .... done
Last element of RFO vector              ....  0.934859222
Lowest eigenvalues of augmented Hessian:
 -0.008828330  0.000193107  0.000823334  0.001159460  0.001497808
Length of the computed step             ....  0.379756258
Warning: the length of the step is outside the trust region - taking restricted step instead
The input lambda is                     ....    -0.000817
   iter:   5  x=   -0.009782  g=   33.162459 f(x)=     0.094617
   iter:  10  x=   -0.012774  g=    7.749772 f(x)=     0.000000
The output lambda is                    ....    -0.012774 (11 iterations)
The final length of the internal step   ....  0.311111111
Converting the step to Cartesian space:
 Initial RMS(Int)=    0.0354544016
Transforming coordinates:
 Iter   0:  RMS(Cart)=    0.0375876819 RMS(Int)=    0.0304570790
 Iter   5:  RMS(Cart)=    0.0000001885 RMS(Int)=    0.0000016466
done
Storing new coordinates                 .... done
The predicted energy change is          ....    -0.004801398
Previously predicted energy change      ....    -0.033441392
Actually observed energy change         ....    -0.032661604
Ratio of predicted to observed change   ....     0.976681930
New trust radius                        ....     0.466666667

                                .--------------------.
          ----------------------|Geometry convergence|-------------------------
          Item                value                   Tolerance       Converged
          ---------------------------------------------------------------------
          Energy change      -0.0326616037            0.0000010000      NO
          RMS gradient        0.0057950567            0.0000300000      NO
          MAX gradient        0.0191066938            0.0001000000      NO
          RMS step            0.0354544016            0.0006000000      NO
          MAX step            0.1155238788            0.0010000000      NO
          -------------------------------------------------------------------------
          ........................................................
          Max(Bonds)      0.0455      Max(Angles)    2.97
          Max(Dihed)        6.62      Max(Improp)    0.00
          ---------------------------------------------------------------------

The optimization has not yet converged - more geometry cycles are needed


    ---------------------------------------------------------------------------
                         Redundant Internal Coordinates
                            (Angstroem and degrees)

        Definition                    Value    dE/dq     Step     New-Value
    ----------------------------------------------------------------------------
     1. B(B   2,B   1)                1.5394  0.008328 -0.0259    1.5135   
     2. B(B   2,B   0)                1.5136 -0.017641  0.0455    1.5592   
     3. B(B   6,B   5)                1.5241 -0.012802  0.0375    1.5615   
     4. B(B   6,B   0)                1.5487  0.018401 -0.0416    1.5071   
     5. B(B   7,B   5)                1.8478  0.010926 -0.0232    1.8246   
     6. B(B   7,B   4)                1.4725  0.008352  0.0041    1.4766   
     7. B(B   8,B   5)                1.8685 -0.006750  0.0251    1.8935   
     8. B(B   8,B   7)                1.6084  0.000673  0.0013    1.6097   
     9. B(B   8,B   6)                1.7500 -0.002381  0.0014    1.7515   
    10. B(B   9,B   8)                1.5065 -0.012729  0.0018    1.5083   
    11. B(B   9,B   3)                1.5364  0.013938 -0.0141    1.5223   
    12. B(B  10,B   3)                1.5012 -0.010673  0.0134    1.5146   
    13. B(B  11,B  10)                1.5199  0.011514 -0.0134    1.5065   
    14. B(B  11,B   3)                2.5200  0.003177 -0.0376    2.4825   
    15. B(B  11,B   1)                1.5120 -0.000776  0.0111    1.5231   
    16. A(B   2,B   0,B   6)          177.09 -0.003550   -2.97    174.12   
    17. A(B   2,B   1,B  11)          155.69 -0.001497   -1.72    153.97   
    18. A(B   0,B   2,B   1)          161.60 -0.006358    0.81    162.41   
    19. A(B   9,B   3,B  11)          145.65 -0.001543    0.70    146.35   
    20. A(B   9,B   3,B  10)          177.82  0.000586   -2.28    175.53   
    21. A(B  10,B   3,B  11)           33.71  0.001792    0.91     34.61   
    22. A(B   6,B   5,B   7)          112.37  0.002123   -1.53    110.84   
    23. A(B   7,B   5,B   8)           51.29 -0.000300    0.06     51.34   
    24. A(B   6,B   5,B   8)           61.11  0.002426   -1.30     59.81   
    25. A(B   0,B   6,B   5)          137.55  0.000567    2.12    139.66   
    26. A(B   5,B   6,B   8)           69.20  0.000387    0.34     69.54   
    27. A(B   0,B   6,B   8)           72.49  0.000796    1.17     73.65   
    28. A(B   5,B   7,B   8)           65.02 -0.005095    1.36     66.38   
    29. A(B   4,B   7,B   5)           55.12  0.019107   -1.98     53.13   
    30. A(B   4,B   7,B   8)          119.58  0.013883   -0.10    119.48   
    31. A(B   5,B   8,B   9)          166.48 -0.000839    0.45    166.93   
    32. A(B   6,B   8,B   7)          113.35  0.002579   -0.64    112.72   
    33. A(B   5,B   8,B   7)           63.69  0.005395   -1.41     62.28   
    34. A(B   5,B   8,B   6)           49.69 -0.002813    0.96     50.65   
    35. A(B   7,B   8,B   9)          116.73 -0.005498    2.03    118.76   
    36. A(B   6,B   8,B   9)          128.26  0.002757   -1.46    126.80   
    37. A(B   3,B   9,B   8)          162.64 -0.002695   -0.53    162.11   
    38. A(B   3,B  10,B  11)          113.06  0.001541   -2.31    110.75   
    39. A(B   3,B  11,B  10)           33.24 -0.003332    1.40     34.64   
    40. A(B   1,B  11,B  10)           97.78  0.000339    1.75     99.53   
    41. A(B   1,B  11,B   3)           65.45  0.003800    0.52     65.97   
    42. D(B   0,B   2,B   1,B  11)      5.61  0.000545   -5.11      0.51   
    43. D(B   1,B   2,B   0,B   6)    169.92  0.000794   -6.62    163.30   
    44. D(B   8,B   6,B   5,B   7)      1.74  0.000088   -0.71      1.03   
    45. D(B   8,B   6,B   0,B   2)   -162.43  0.001430   -1.44   -163.87   
    46. D(B   5,B   6,B   0,B   2)    171.28 -0.000652   -0.03    171.25   
    47. D(B   0,B   6,B   5,B   8)     26.86  0.002187   -1.62     25.24   
    48. D(B   0,B   6,B   5,B   7)     28.60  0.002274   -2.34     26.27   
    49. D(B   8,B   7,B   5,B   6)     -1.95 -0.000152    0.42     -1.54   
    50. D(B   4,B   7,B   5,B   8)   -171.39 -0.000424   -1.83   -173.22   
    51. D(B   4,B   7,B   5,B   6)   -173.35 -0.000576   -1.41   -174.76   
    52. D(B   9,B   8,B   5,B   7)     95.20 -0.001139   -0.66     94.54   
    53. D(B   9,B   8,B   5,B   6)    -86.87 -0.001220   -0.00    -86.87   
    54. D(B   7,B   8,B   5,B   6)    177.94 -0.000081    0.66    178.59   
    55. D(B   5,B   8,B   6,B   0)   -161.35  0.001163   -1.98   -163.33   
    56. D(B   9,B   8,B   7,B   5)   -164.89  0.000222   -0.51   -165.40   
    57. D(B   6,B   8,B   5,B   7)   -177.94  0.000081   -0.66   -178.59   
    58. D(B   6,B   8,B   7,B   4)      9.83  0.002654   -0.30      9.53   
    59. D(B   5,B   8,B   7,B   4)      8.12  0.002624    0.30      8.41   
    60. D(B   9,B   8,B   6,B   5)    162.70 -0.001784    1.21    163.92   
    61. D(B   9,B   8,B   6,B   0)      1.36 -0.000621   -0.77      0.58   
    62. D(B   6,B   8,B   7,B   5)      1.71  0.000029   -0.59      1.12   
    63. D(B   9,B   8,B   7,B   4)   -156.77  0.002847   -0.21   -156.98   
    64. D(B   7,B   8,B   6,B   5)     -2.02 -0.000212    0.23     -1.78   
    65. D(B   7,B   8,B   6,B   0)   -163.36  0.000951   -1.75   -165.11   
    66. D(B   3,B   9,B   8,B   7)    125.21  0.000545   -1.34    123.87   
    67. D(B   3,B   9,B   8,B   6)    -39.07  0.001072   -1.89    -40.96   
    68. D(B   3,B   9,B   8,B   5)     36.79  0.000496   -0.73     36.06   
    69. D(B   8,B   9,B   3,B  11)     53.01  0.003392   -1.24     51.78   
    70. D(B   8,B   9,B   3,B  10)    -18.36  0.000808   -1.49    -19.85   
    71. D(B  11,B  10,B   3,B   9)     74.47  0.001595   -3.72     70.75   
    72. D(B   3,B  11,B   1,B   2)     -7.30 -0.000517    3.38     -3.92   
    73. D(B   1,B  11,B  10,B   3)    -13.23 -0.001741   -0.46    -13.68   
    74. D(B  10,B  11,B   3,B   9)   -176.27 -0.001121    2.21   -174.06   
    75. D(B   1,B  11,B   3,B  10)    165.57 -0.001448   -0.33    165.23   
    76. D(B   1,B  11,B   3,B   9)    -10.70 -0.002569    1.87     -8.83   
    77. D(B  10,B  11,B   1,B   2)      0.63 -0.000436    3.76      4.38   
    ----------------------------------------------------------------------------

Geometry step timings:
Preparation and reading OPT file:      0.000 s ( 0.930 %)
Internal coordinates            :      0.000 s ( 1.106 %)
B/P matrices and projection     :      0.001 s (15.737 %)
Hessian update/contruction      :      0.001 s (14.681 %)
Making the step                 :      0.002 s (40.623 %)
Converting the step to Cartesian:      0.000 s ( 3.444 %)
Storing new data                :      0.000 s ( 1.709 %)
Checking convergence            :      0.000 s ( 1.986 %)
Final printing                  :      0.001 s (19.734 %)
Total time                      :      0.004 s

Time for energy+gradient        :      0.060 s
Time for complete geometry iter :      0.065 s




    ----------------------------------------------------------------------------
                                  WARNING !!!
       The optimization did not converge but reached the maximum number of
       optimization cycles.
       Please check your results very carefully.
    ----------------------------------------------------------------------------



--------------------------------
SUGGESTED CITATIONS FOR THIS RUN
--------------------------------

Below you find a list of papers that are relevant to this ORCA run
We neither can nor want to force you to cite these papers, but we appreciate if you do
You receive ORCA, which is the product of decades of hard work by many enthusiastic individuals, for free
The only thing we kindly ask in return is that you cite our papers,
We deeply appreciate it, if you show your appreciation for ORCA by not just citing the generic ORCA reference.

Please note that relegating all ORCA citations to the supporting information does *not* help us.
SI sections are not indexed - citations you put there will not count into any citation statistics
But we need these citations in order to attract the funding resources that allow us to do what we are doing

Therefore, if you are a happy ORCA user, please consider citing a few of the papers listed below in the main body of your paper

In addition to the list printed below, the program has created the file random_d1.50_002_m1.bibtex that contains the list in bibtex format
You can import this file easily into all common literature databanks and citation aid programs

It goes without saying that in many instances, there are alternative algorithms to achieve similar
results as the ones you have gotten from ORCA. It is, of course, also the case that in some instances
ORCA just re-implements algorithms worked out by others. We are fully aware of that and we are also
fully appreciative of our colleagues work. Hence this citation list should not be read as indicating
that the listed papers, which are focused on our own work, are the only ones worth citing. It simply
meant to make it easier for users to cite ORCA specific papers. It is not a substitute for doing your
own literature research and citing the relevant literature in a scientifically appropriate manner.

List of essential papers. We consider these as the minimum necessary citations

  1. Bannwarth, C.; Ehlert, S.; Grimme, S.
     GFN2-xTB—An Accurate and Broadly Parametrized Self-Consistent Tight-Binding Quantum Chemical Method with Multipole Electrostatics and Density-Dependent Dispersion Contributions
     J. Chem. Theory Comput. 2019 15(3), 1652-1671
     doi.org/10.1021/acs.jctc.8b01176
  2. Neese, F.
     Software update: the ORCA program system, version 6.0
     WIRES Comput. Molec. Sci. 2025 15(1), e70019
     doi.org/10.1002/wcms.70019

List of papers to cite with high priority. The work reported in these papers was absolutely
necessary for this run to complete.
Our perspective: the developers of density functionals and basis sets usually get cited in chemistry papers
Good! But without the algorithms to do something with them, the functionals or basis sets would not do anything.
Hence, in our opinion, the algorithm design and method developments papers are equally worthy of getting cited

  1. Bannwarth, C.; Caldeweyher, E.; Ehlert, S.; Hansen, A.; Pracht, P.; Seibert, J.; Spicher, S.; Grimme, S.
     Extended tight-binding quantum chemistry methods
     WIRES Comput. Molec. Sci. 2020 11(2), e1493
     doi.org/10.1002/wcms.1493

List of suggested additional citations. These are papers that are important in the 'surrounding' of 
of this run, or papers that preceded the highly important papers. If you like your results we are grateful for a citation.

  1. Neese, F.
     The ORCA program system
     WIRES Comput. Molec. Sci. 2012 2(1), 73-78
     doi.org/10.1002/wcms.81
  2. Neese, F.
     Software update: the ORCA program system, version 4.0
     WIRES Comput. Molec. Sci. 2018 8(1), 1-6
     doi.org/10.1002/wcms.1327
  3. Neese, F.; Wennmohs, F.; Becker, U.; Riplinger, C.
     The ORCA quantum chemistry program package
     J. Chem. Phys. 2020 152(22), 224108
     doi.org/10.1063/5.0004608
  4. Neese, F.
     Software update: The ORCA program system—Version 5.0
     WIRES Comput. Molec. Sci. 2022 12(1), e1606
     doi.org/10.1002/wcms.1606

List of optional additional citations

  1. Neese, F.
     Approximate second-order SCF convergence for spin unrestricted wavefunctions
     Chem. Phys. Lett. 2000 325(1-3), 93-98
     doi.org/10.1016/s0009-2614(00)00662-x

Timings for individual modules:

Sum of individual times          ...        3.589 sec (=   0.060 min)
Geometry relaxation              ...        0.533 sec (=   0.009 min)  14.9 %
XTB module                       ...        3.056 sec (=   0.051 min)  85.1 %
                             ****ORCA TERMINATED NORMALLY****
TOTAL RUN TIME: 0 days 0 hours 0 minutes 4 seconds 659 msec
