
                                 *****************
                                 * O   R   C   A *
                                 *****************

                                            #,                                       
                                            ###                                      
                                            ####                                     
                                            #####                                    
                                            ######                                   
                                           ########,                                 
                                     ,,################,,,,,                         
                               ,,#################################,,                 
                          ,,##########################################,,             
                       ,#########################################, ''#####,          
                    ,#############################################,,   '####,        
                  ,##################################################,,,,####,       
                ,###########''''           ''''###############################       
              ,#####''   ,,,,##########,,,,          '''####'''          '####       
            ,##' ,,,,###########################,,,                        '##       
           ' ,,###''''                  '''############,,,                           
         ,,##''                                '''############,,,,        ,,,,,,###''
      ,#''                                            '''#######################'''  
     '                                                          ''''####''''         
             ,#######,   #######,   ,#######,      ##                                
            ,#'     '#,  ##    ##  ,#'     '#,    #''#        ,####,    ,#,          
            ##       ##  ##   ,#'  ##            #'  '#       #'       ,# #          
            ##       ##  #######   ##           ,######,      #####,      #          
            '#,     ,#'  ##    ##  '#,     ,#' ,#      #,     #,   #      #          
             '#######'   ##     ##  '#######'  #'      '#     '####' #    #          



                #########################################################
                #                        -***-                          #
                #          Department of theory and spectroscopy        #
                #                                                       #
                #                      Frank Neese                      #
                #                                                       #
                #     Directorship, Architecture, Infrastructure        #
                #                    SHARK, DRIVERS                     #
                #        Core code/Algorithms in most modules           #
                #                                                       #
                #        Max Planck Institute fuer Kohlenforschung      #
                #                Kaiser Wilhelm Platz 1                 #
                #                 D-45470 Muelheim/Ruhr                 #
                #                      Germany                          #
                #                                                       #
                #                  All rights reserved                  #
                #                        -***-                          #
                #########################################################


                         Program Version 6.1.1  -  RELEASE   -
                                (GIT: $487d211c$)
                          ($2025-11-21 10:33:24 +0100$)
                                                                         
                                  - NO-DMRG VERSION -                    
                                                                         


 With contributions from (in alphabetic order):
[Max-Planck-Institut fuer Kohlenforschung]                               
  Daniel Aravena         : Magnetic Suceptibility                        
  Michael Atanasov       : Ab Initio Ligand Field Theory (pilot matlab implementation)
  Alexander A. Auer      : GIAO ZORA, VPT2 properties, NMR spectrum      
  Ute Becker             : All parallelization in ORCA, NUMFREQ, NUMCALC 
  Giovanni Bistoni       : ED, misc. LED, open-shell LED, HFLD           
  Dmytro Bykov           : pre 5.0 version of the SCF Hessian            
  Marcos Casanova-Páez   : Triplet and SCS-CIS(D). UHF-(DLPNO)-IP/EA/STEOM-CCSD. UHF-CVS-IP/STEOM-CCSD   
  Vijay G. Chilkuri      : MRCI spin determinant printing, contributions to CSF-ICE 
  Pauline Colinet        : FMM embedding                                 
  Dipayan Datta          : RHF DLPNO-CCSD density                        
  Achintya Kumar Dutta   : EOM-CC, STEOM-CC                              
  Nicolas Foglia         : Exact transition moments, OPA infrastructure, MCD improvements    
  Dmitry Ganyushin       : Spin-Orbit,Spin-Spin,Magnetic field MRCI      
  Miquel Garcia-Rates    : C-PCM and meta-GGA Hessian, CCSD/C-PCM, Gaussian charge scheme 
  Tiago L. C. Gouveia    : GS-ROHF, GS-ROCIS                             
  Yang Guo               : DLPNO-NEVPT2, F12-NEVPT2, CIM, IAO-localization        
  Andreas Hansen         : Spin unrestricted coupled pair/coupled cluster methods 
  Ingolf Harden          : AUTO-CI MPn and infrastructure                
  Benjamin Helmich-Paris : MC-RPA, TRAH-(SCF,CASSCF), AVAS, COSX integrals, SCF dyn. polar., MC-PDFT, srDFT 
  Lee Huntington         : MR-EOM, pCC                                   
  Robert Izsak           : Overlap fitted RIJCOSX, COSX-SCS-MP3, EOM     
  Riya Kayal             : Wick's Theorem for AUTO-CI, AUTO-CI UHF-CCSDT 
  Emily Kempfer          : AUTO-CI RHF CISDT and CCSDT, approximate NEVPT4
  Christian Kollmar      : KDIIS, OOCD, Brueckner-CCSD(T), CCSD density, CASPT2, CASPT2-K, improved NEVPT2 
  Axel Koslowski         : Symmetry handling                             
  Simone Kossmann        : meta-GGA functionals, TD-DFT gradient, OOMP2, (MP2 Hessian; deprecated post 5.0) 
  Lucas Lang             : DCDCAS, Hyperfine gauge corrections, ICE-SOC+SSC
  Marvin Lechner         : AUTO-CI (C++ implementation), FIC-MRCC        
  Spencer Leger          : CASSCF response                               
  Dagmar Lenk            : GEPOL surface, SMD, ORCA-2-JSON               
  Dimitrios Liakos       : Extrapolation schemes; Compound Job, Property file
  Dimitrios Manganas     : Further ROCIS development; embedding schemes. LFT, Crystal Embedding 
  Dimitrios Pantazis     : SARC Basis sets                               
  Anastasios Papadopoulos: AUTO-CI, single reference methods and gradients 
  Taras Petrenko         : pre 6.0 DFT Hessian and TD-DFT gradient,  ECA, NRVS 
  Petra Pikulova         : Analytic Raman intensities                    
  Peter Pinski           : DLPNO-MP2, DLPNO-MP2 Gradient                 
  Shashank Vittal Rao    : ES-AILFT, MagRelax                            
  Christoph Reimann      : Effective Core Potentials                     
  Marius Retegan         : Local ZFS, SOC                                
  Christoph Riplinger    : Optimizer, TS searches, QM/MM, DLPNO-CCSD(T), (RO)-DLPNO pert. Triples 
  Michael Roemelt        : Original ROCIS implementation, recursive CI coupling coefficients
  Masaaki Saitow         : Open-shell DLPNO-CCSD energy and density      
  Barbara Sandhoefer     : DKH picture change effects                    
  Yorick L. A. Schmerwitz: GMF and freeze-and-release deltaSCF, NEB S-IDPP initial path                    
  Kantharuban Sivalingam : CASSCF convergence/infrastructure, NEVPT2, NEVPT3, NEVPT4(SD), FIC-MRCI and CEPA variants
  Bernardo de Souza      : ESD, SOC TD-DFT                               
  Georgi L. Stoychev     : AutoAux, RI-MP2 NMR, DLPNO-MP2 response, X2C  
  Van Anh Tran           : RI-MP2 g-tensors                              
  Willem Van den Heuvel  : Paramagnetic NMR                              
  Zikuan Wang            : NOTCH, Electric field optimization            
  Frank Wennmohs         : Technical directorship and infrastructure     
  Hang Xu                : AUTO-CI-Response properties                   
                                                                         
[FACCTs GmbH]                                                            
  Markus Bursch, Nicolas Foglia, Miquel Garcia-Rates, Ingolf Harden, Hagen Neugebauer, Anastasios Papadopoulos, 
  Christoph Riplinger, Bernardo de Souza, Georgi L. Stoychev                                                    
                                                                 
  APM, various basis sets, CI-OPT, improved COSX, DLPNO-Multilevel,           
  DOCKER, DRACO, updates on ESD, Fragmentator, GOAT, IRC, LR-CPCM, L-BFGS, MBIS, meta-GGA TD-DFT gradient, ML-optimized integration grids, 
  MM, NACMEs, nearIR, NEB, NEB-TS, NL-DFT gradient (VV10), 2- and 3-layer-ONIOM, interface openCOSMO-RS, QMMM,   
  Crystal-QMMM, RESP, rigid body optimization, SF, symmetry and pop. for TD-DFT, various functionals, SOLVATOR                                   
                                                                         
[Other institutions]                                                     
  V. Asgeirsson          : NEB                                           
  Christoph Bannwarth    : sTDA-DFT, sTD-DFT, PBEh-3c, B97-3c, D3        
  Giovanni Bistoni       : ETS/NOCV, ADLD/ADEX, COVALED                  
  Martin Brehm           : Molecular dynamics                            
  Ronald Cardenas        : ETS/NOCV                                      
  Martina Colucci        : COVALED                                       
  Sebastian Ehlert       : rSCAN, r2SCAN, r2SCAN-3c, D4, dhf basis sets  
  Marvin Friede          : D4 for Fr, Ra, Ac-Lr                          
  Lars Goerigk           : TD-DFT with DH, B97 family of functionals     
  Stefan Grimme          : VdW corrections, initial TS optimization, DFT functionals, gCP, sTDA/sTD-DF 
  Waldemar Hujo          : DFT-NL                                        
  H. Jonsson             : NEB                                           
  Holger Kruse           : gCP                                           
  Marcel Mueller         : wB97X-3c, vDZP basis set                      
  Hagen Neugebauer       : wr2SCAN, Native XTB                           
  Gianluca Regni         : ADLD/ADEX                                     
  Tobias Risthaus        : pre 6.0 range-separated hybrid DFT and stability analysis
  Lukas Wittmann         : regularized MP2, r2SCAN double-hybrids, wr2SCAN        
                                                                         
We gratefully acknowledge several colleagues who have allowed us to      
interface, adapt or use parts of their codes:                            
  Ed Valeev, F. Pavosevic, A. Kumar             : LibInt (2-el integral package), F12 methods 
  Garnet Chan, S. Sharma, J. Yang, R. Olivares  : DMRG                   
  Ulf Ekstrom                                   : XCFun DFT Library      
  Mihaly Kallay                                 : mrcc  (arbitrary order and MRCC methods)
  Frank Weinhold                                : gennbo (NPA and NBO analysis)           
  Simon Mueller                                 : openCOSMO-RS                            
  Christopher J. Cramer and Donald G. Truhlar   : smd solvation model                     
  S Lehtola, MJT Oliveira, MAL Marques          : LibXC Library                           
  Liviu Ungur et al                             : ANISO software                          


 Your calculation uses the libint2 library for the computation of 2-el integrals
 For citations please refer to: http://libint.valeyev.net

 Your ORCA version has been built with support for libXC version: 7.0.0
 For citations please refer to: https://libxc.gitlab.io

 This ORCA versions uses:
   CBLAS   interface :  Fast vector & matrix operations
   LAPACKE interface :  Fast linear algebra routines
   SCALAPACK package :  Parallel linear algebra routines
   Shared memory     :  Shared parallel matrices
   BLAS/LAPACK       :  OpenBLAS 0.3.29  USE64BITINT DYNAMIC_ARCH NO_AFFINITY Zen SINGLE_THREADED
        Core in use  :  Zen
   Copyright (c) 2011-2014, The OpenBLAS Project


  ***********************************
  * Starting time: Fri Apr 17 12:14:22 2026
  * Host name:     vmi3233575
  * Process ID:    334724
  * Working dir.:  /root/orca_b12_vps_pack/jobs/01_xtb/mult_1
  ***********************************

NOTE: MaxCore=500 MB was set to SCF,MP2,MDCI,CIPSI,MRCI,RASCI and CIS
      => If you want to overwrite this, your respective input block should be placed after the MaxCore statement


***************************************
The coordinates will be read from file: ../../../starts/random_d2.10_008.xyz
***************************************


Your calculation utilizes the semiempirical GFN2-xTB method
Please cite in your paper:
Bannwarth, C.; Ehlert S.; Grimme, S. J. Chem. Theory Comput. 2019, 15, 1652.
   

================================================================================

================================================================================
                                        WARNINGS
                       Please study these warnings very carefully!
================================================================================


WARNING: Geometry Optimization
  ===> : Switching off AutoStart
         For restart on a previous wavefunction, please use MOREAD

WARNING: Found dipole moment calculation with XTB calculation
  ===> : Switching off dipole moment calculation

Environment variable XTBEXE for xtb has been set!

================================================================================
                                       INPUT FILE
================================================================================
NAME = random_d2.10_008_m1.inp
|  1> ! GFN2-xTB TightSCF TightOpt
|  2> 
|  3> %pal
|  4>   nprocs 1
|  5> end
|  6> 
|  7> %maxcore 500
|  8> 
|  9> * xyzfile 0 1 ../../../starts/random_d2.10_008.xyz
| 10> 
| 11>                          ****END OF INPUT****
================================================================================

                       *****************************
                       * Geometry Optimization Run *
                       *****************************

Geometry optimization settings:
Update method            Update   .... BFGS
Choice of coordinates    CoordSys .... (2022) Redundant Internals
Initial Hessian          InHess   .... Almloef's Model
Max. no of cycles        MaxIter  .... 50

Convergence Tolerances:
Energy Change            TolE     ....  1.0000e-06 Eh
Max. Gradient            TolMAXG  ....  1.0000e-04 Eh/bohr
RMS Gradient             TolRMSG  ....  3.0000e-05 Eh/bohr
Max. Displacement        TolMAXD  ....  1.0000e-03 bohr
RMS Displacement         TolRMSD  ....  6.0000e-04 bohr
Strict Convergence                .... False

------------------------------------------------------------------------------
                        ORCA OPTIMIZATION COORDINATE SETUP
------------------------------------------------------------------------------

The optimization will be done in redundant internal coordinates (2022)
Making redundant internal coordinates   ...  (2022 redundants) done
Evaluating the initial hessian          ...  (Almloef) done
Evaluating the coordinates              ...  done
Calculating the B-matrix                .... done
Calculating the G-matrix                .... done
The number of degrees of freedom        ....  141

    -----------------------------------------------------------------
                    Redundant Internal Coordinates


    -----------------------------------------------------------------
         Definition                    Initial Value    Approx d2E/dq
    -----------------------------------------------------------------
      1. B(B   3,B   2)                  2.7932         0.010000   
      2. B(B   4,B   1)                  2.3925         0.021085   
      3. B(B   4,B   3)                  1.2930         1.197266   
      4. B(B   5,B   1)                  1.5154         0.528800   
      5. B(B   6,B   0)                  2.9882         0.010000   
      6. B(B   6,B   2)                  3.6608         0.010000   
      7. B(B   7,B   3)                  2.4601         0.016446   
      8. B(B   7,B   4)                  2.7184         0.010000   
      9. B(B   8,B   3)                  2.4779         0.015406   
     10. B(B   8,B   4)                  2.3789         0.022167   
     11. B(B   9,B   7)                  1.8343         0.163888   
     12. B(B   9,B   4)                  2.9561         0.010000   
     13. B(B  10,B   5)                  2.2189         0.039888   
     14. B(B  10,B   9)                  1.3710         0.898882   
     15. B(B  11,B   3)                  2.7406         0.010000   
     16. B(B  11,B   2)                  1.9373         0.112251   
     17. B(B  11,B   7)                  2.6922         0.010000   
     18. B(B  11,B   6)                  4.5716         0.010000   
     19. A(B   4,B   1,B   5)          108.4675         0.250577   
     20. A(B   3,B   2,B   6)          112.0975         0.108453   
     21. A(B   3,B   2,B  11)           68.0568         0.170532   
     22. A(B   6,B   2,B  11)          105.3101         0.128632   
     23. A(B   2,B   3,B   7)          101.0401         0.141788   
     24. A(B   2,B   3,B  11)           40.9712         0.130808   
     25. A(B   2,B   3,B   4)          101.8308         0.228317   
     26. A(B   2,B   3,B   8)          107.2274         0.141013   
     27. A(B   8,B   3,B  11)          148.1984         0.143339   
     28. A(B   7,B   3,B   8)          146.6461         0.157610   
     29. A(B   4,B   3,B  11)          109.9966         0.234546   
     30. A(B   7,B   3,B  11)           62.0742         0.144148   
     31. A(B   4,B   3,B   7)           86.9884         0.272772   
     32. A(B   4,B   3,B   8)           70.3686         0.270075   
     33. A(B   1,B   4,B   3)          146.0903         0.283404   
     34. A(B   3,B   4,B   8)           78.8392         0.285618   
     35. A(B   1,B   4,B   7)           99.3524         0.148425   
     36. A(B   7,B   4,B   9)           37.4235         0.126192   
     37. A(B   7,B   4,B   8)          136.1518         0.149101   
     38. A(B   1,B   4,B   9)           70.1570         0.137769   
     39. A(B   3,B   4,B   7)           64.6539         0.237256   
     40. A(B   3,B   4,B   9)          101.8293         0.210672   
     41. A(B   8,B   4,B   9)          159.8908         0.138324   
     42. A(B   1,B   4,B   8)           97.8883         0.167809   
     43. A(B   1,B   5,B  10)          106.2019         0.275657   
     44. A(B   2,B   6,B  11)           24.1251         0.093434   
     45. A(B   0,B   6,B   2)          124.3563         0.105541   
     46. A(B   0,B   6,B  11)          113.3228         0.096756   
     47. A(B   3,B   7,B   9)          106.4806         0.206167   
     48. A(B   9,B   7,B  11)          112.3392         0.185605   
     49. A(B   3,B   7,B   4)           28.3577         0.145175   
     50. A(B   4,B   7,B  11)           78.0464         0.135317   
     51. A(B   4,B   7,B   9)           78.3374         0.183523   
     52. A(B   3,B   7,B  11)           64.0841         0.146412   
     53. A(B   3,B   8,B   4)           30.7923         0.162406   
     54. A(B   7,B   9,B  10)          144.8443         0.378801   
     55. A(B   4,B   9,B  10)           90.4491         0.203028   
     56. A(B   4,B   9,B   7)           64.2391         0.166574   
     57. A(B   5,B  10,B   9)          107.3546         0.299472   
     58. A(B   3,B  11,B   7)           53.8417         0.134470   
     59. A(B   3,B  11,B   6)           91.1112         0.098529   
     60. A(B   2,B  11,B   3)           70.9720         0.174178   
     61. A(B   6,B  11,B   7)          109.0398         0.098921   
     62. A(B   2,B  11,B   7)          121.7232         0.177675   
     63. A(B   2,B  11,B   6)           50.5648         0.107584   
     64. D(B   7,B   3,B   2,B  11)    -17.7485         0.010000   
     65. D(B   4,B   3,B   2,B   6)     -8.6966         0.010000   
     66. D(B  11,B   3,B   2,B   6)     98.2599         0.010000   
     67. D(B   4,B   3,B   2,B  11)   -106.9566         0.010000   
     68. D(B   8,B   3,B   2,B  11)   -179.8331         0.010000   
     69. D(B   7,B   3,B   2,B   6)     80.5114         0.010000   
     70. D(B   1,B   4,B   3,B  11)    126.3093         0.098210   
     71. D(B   1,B   4,B   3,B   7)     67.5214         0.098210   
     72. D(B   3,B   4,B   1,B   5)   -135.8197         0.010000   
     73. D(B   7,B   4,B   3,B   8)   -155.0712         0.098210   
     74. D(B   1,B   4,B   3,B   2)    168.1768         0.098210   
     75. D(B   7,B   4,B   3,B   2)    100.6554         0.098210   
     76. D(B   7,B   4,B   3,B  11)     58.7879         0.098210   
     77. D(B   1,B   4,B   3,B   8)    -87.5498         0.098210   
     78. D(B   9,B   4,B   1,B   5)    -54.2257         0.010000   
     79. D(B   7,B   4,B   1,B   5)    -78.0056         0.010000   
     80. D(B   9,B   4,B   3,B   7)     -4.4148         0.098210   
     81. D(B   8,B   4,B   1,B   5)    142.4689         0.010000   
     82. D(B  10,B   5,B   1,B   4)     40.3105         0.010674   
     83. D(B  11,B   6,B   2,B   3)    -72.1212         0.010000   
     84. D(B   0,B   6,B   2,B  11)     69.3248         0.010000   
     85. D(B   0,B   6,B   2,B   3)     -2.7964         0.010000   
     86. D(B   9,B   7,B   4,B   3)   -172.8783         0.010000   
     87. D(B  11,B   7,B   3,B   8)    160.7722         0.010000   
     88. D(B  11,B   7,B   3,B   2)     13.0746         0.010000   
     89. D(B  11,B   7,B   3,B   4)    114.5480         0.010000   
     90. D(B   9,B   7,B   3,B  11)   -107.2736         0.010000   
     91. D(B   9,B   7,B   3,B   4)      7.2743         0.010000   
     92. D(B   9,B   7,B   4,B   1)     38.6180         0.010000   
     93. D(B   9,B   7,B   3,B   8)     53.4985         0.010000   
     94. D(B  11,B   7,B   4,B   9)    116.1296         0.010000   
     95. D(B  11,B   7,B   4,B   8)    -93.3987         0.010000   
     96. D(B  11,B   7,B   4,B   1)    154.7476         0.010000   
     97. D(B   9,B   7,B   3,B   2)    -94.1991         0.010000   
     98. D(B  11,B   7,B   4,B   3)    -56.7487         0.010000   
     99. D(B   9,B   7,B   4,B   8)    150.4717         0.010000   
    100. D(B   3,B   8,B   4,B   9)     93.9494         0.010000   
    101. D(B   3,B   8,B   4,B   7)     33.3577         0.010000   
    102. D(B   3,B   8,B   4,B   1)    145.7572         0.010000   
    103. D(B   4,B   8,B   3,B  11)     96.5284         0.010000   
    104. D(B   4,B   8,B   3,B   2)     96.7360         0.010000   
    105. D(B   4,B   8,B   3,B   7)    -49.9564         0.010000   
    106. D(B   4,B   9,B   7,B   3)     -3.5207         0.010000   
    107. D(B   4,B   9,B   7,B  11)    -71.7319         0.010000   
    108. D(B  10,B   9,B   7,B   4)     47.9246         0.010000   
    109. D(B  10,B   9,B   7,B   3)     44.4039         0.010000   
    110. D(B  10,B   9,B   7,B  11)    -23.8073         0.010000   
    111. D(B  10,B   9,B   4,B   7)   -154.6968         0.010000   
    112. D(B  10,B   9,B   4,B   1)     66.2002         0.010000   
    113. D(B  10,B   9,B   4,B   3)   -148.1235         0.010000   
    114. D(B   7,B   9,B   4,B   8)    -83.2455         0.010000   
    115. D(B   7,B   9,B   4,B   1)   -139.1030         0.010000   
    116. D(B   7,B   9,B   4,B   3)      6.5733         0.010000   
    117. D(B   5,B  10,B   9,B   4)    -55.2702         0.035352   
    118. D(B   5,B  10,B   9,B   7)    -97.2227         0.035352   
    119. D(B   9,B  10,B   5,B   1)     24.1230         0.010000   
    120. D(B   2,B  11,B   3,B   7)    160.2066         0.010000   
    121. D(B   2,B  11,B   3,B   4)     85.0492         0.010000   
    122. D(B   3,B  11,B   2,B   6)   -108.0712         0.010000   
    123. D(B   7,B  11,B   2,B   3)     18.7493         0.010000   
    124. D(B   7,B  11,B   2,B   6)    -89.3219         0.010000   
    125. D(B   2,B  11,B   3,B   8)      0.3024         0.010000   
    126. D(B   6,B  11,B   2,B   3)    108.0712         0.010000   
    127. D(B   6,B  11,B   7,B   4)    -50.6849         0.010000   
    128. D(B   6,B  11,B   7,B   3)    -76.8922         0.010000   
    129. D(B   6,B  11,B   7,B   9)     21.2322         0.010000   
    130. D(B   2,B  11,B   7,B   3)    -22.1081         0.010000   
    131. D(B   2,B  11,B   7,B   9)     76.0163         0.010000   
    132. D(B   3,B  11,B   6,B   2)     64.0133         0.010000   
    133. D(B   3,B  11,B   6,B   0)    -58.7298         0.010000   
    134. D(B   7,B  11,B   6,B   2)    115.8731         0.010000   
    135. D(B   7,B  11,B   6,B   0)     -6.8700         0.010000   
    136. D(B   2,B  11,B   6,B   0)   -122.7431         0.010000   
    137. D(B   2,B  11,B   7,B   4)      4.0992         0.010000   
    138. D(B   6,B  11,B   3,B   8)    -46.9527         0.010000   
    139. D(B   6,B  11,B   3,B   2)    -47.2552         0.010000   
    140. D(B   6,B  11,B   3,B   7)    112.9514         0.010000   
    141. D(B   6,B  11,B   3,B   4)     37.7940         0.010000   
    -----------------------------------------------------------------

Number of atoms                         .... 12
Number of degrees of freedom            .... 141


         *************************************************************
         *                GEOMETRY OPTIMIZATION CYCLE   1            *
         *************************************************************
---------------------------------
CARTESIAN COORDINATES (ANGSTROEM)
---------------------------------
  B    -3.185048    2.999734    0.635033
  B     1.374544    1.550325   -1.773417
  B    -1.517372   -2.646701    0.518348
  B     0.805842   -1.799416   -0.780404
  B     0.526902   -0.564724   -1.043997
  B     0.801859    2.631298   -0.878994
  B    -3.785715    0.135177    1.237325
  B     2.127240   -0.960349    1.117519
  B     0.258054   -1.564865   -3.185597
  B     1.800697    0.841563    1.222761
  B     0.830265    1.809137    1.181825
  B    -0.037267   -2.431180    1.749597

----------------------------
CARTESIAN COORDINATES (A.U.)
----------------------------
  NO LB    ZA    FRAG    MASS        X           Y           Z
   0 B   5.0000    0    10.810   -6.018869    5.668676    1.200039
   1 B   5.0000    0    10.810    2.597512    2.929689   -3.351273
   2 B   5.0000    0    10.810   -2.867417   -5.001541    0.979536
   3 B   5.0000    0    10.810    1.522821   -3.400403   -1.474749
   4 B   5.0000    0    10.810    0.995700   -1.067174   -1.972868
   5 B   5.0000    0    10.810    1.515295    4.972432   -1.661058
   6 B   5.0000    0    10.810   -7.153965    0.255447    2.338206
   7 B   5.0000    0    10.810    4.019901   -1.814797    2.111805
   8 B   5.0000    0    10.810    0.487651   -2.957166   -6.019906
   9 B   5.0000    0    10.810    3.402824    1.590324    2.310683
  10 B   5.0000    0    10.810    1.568973    3.418774    2.233326
  11 B   5.0000    0    10.810   -0.070425   -4.594263    3.306259

      -----------------------------------------------------------      
     |                   =====================                   |     
     |                           x T B                           |     
     |                   =====================                   |     
     |                         S. Grimme                         |     
     |          Mulliken Center for Theoretical Chemistry        |     
     |                    University of Bonn                     |     
      -----------------------------------------------------------      

   * xtb version 6.6.1 (unknown) compiled by 'builduser@buildhost' on 2023-08-07

   xtb is free software: you can redistribute it and/or modify it under
   the terms of the GNU Lesser General Public License as published by
   the Free Software Foundation, either version 3 of the License, or
   (at your option) any later version.
   
   xtb is distributed in the hope that it will be useful,
   but WITHOUT ANY WARRANTY; without even the implied warranty of
   MERCHANTABILITY or FITNESS FOR A PARTICULAR PURPOSE.  See the
   GNU Lesser General Public License for more details.
   
   Cite this work as:
   * C. Bannwarth, E. Caldeweyher, S. Ehlert, A. Hansen, P. Pracht,
     J. Seibert, S. Spicher, S. Grimme, WIREs Comput. Mol. Sci., 2020, 11,
     e01493. DOI: 10.1002/wcms.1493
   
   for GFN2-xTB:
   * C. Bannwarth, S. Ehlert and S. Grimme., J. Chem. Theory Comput., 2019,
     15, 1652-1671. DOI: 10.1021/acs.jctc.8b01176
   for GFN1-xTB:
   * S. Grimme, C. Bannwarth, P. Shushkov, J. Chem. Theory Comput., 2017,
     13, 1989-2009. DOI: 10.1021/acs.jctc.7b00118
   for GFN0-xTB:
   * P. Pracht, E. Caldeweyher, S. Ehlert, S. Grimme, ChemRxiv, 2019, preprint.
     DOI: 10.26434/chemrxiv.8326202.v1
   for GFN-FF:
   * S. Spicher and S. Grimme, Angew. Chem. Int. Ed., 2020, 59, 15665-15673.
     DOI: 10.1002/anie.202004239
   
   for ALPB and GBSA implicit solvation:
   * S. Ehlert, M. Stahn, S. Spicher, S. Grimme, J. Chem. Theory Comput.,
     2021, 17, 4250-4261. DOI: 10.1021/acs.jctc.1c00471
   
   for DFT-D4:
   * E. Caldeweyher, C. Bannwarth and S. Grimme, J. Chem. Phys., 2017,
     147, 034112. DOI: 10.1063/1.4993215
   * E. Caldeweyher, S. Ehlert, A. Hansen, H. Neugebauer, S. Spicher,
     C. Bannwarth and S. Grimme, J. Chem. Phys., 2019, 150, 154122.
     DOI: 10.1063/1.5090222
   * E. Caldeweyher, J.-M. Mewes, S. Ehlert and S. Grimme, Phys. Chem. Chem. Phys.
     2020, 22, 8499-8512. DOI: 10.1039/D0CP00502A
   
   for sTDA-xTB:
   * S. Grimme and C. Bannwarth, J. Chem. Phys., 2016, 145, 054103.
     DOI: 10.1063/1.4959605
   
   in the mass-spec context:
   * V. Asgeirsson, C. Bauer and S. Grimme, Chem. Sci., 2017, 8, 4879.
     DOI: 10.1039/c7sc00601b
   * J. Koopman and S. Grimme, ACS Omega 2019, 4, 12, 15120-15133.
     DOI: 10.1021/acsomega.9b02011
   
   for metadynamics refer to:
   * S. Grimme, J. Chem. Theory Comput., 2019, 155, 2847-2862
     DOI: 10.1021/acs.jctc.9b00143
   
   for SPH calculations refer to:
   * S. Spicher and S. Grimme, J. Chem. Theory Comput., 2021, 17, 1701-1714
     DOI: 10.1021/acs.jctc.0c01306
   
   with help from (in alphabetical order)
   P. Atkinson, C. Bannwarth, F. Bohle, G. Brandenburg, E. Caldeweyher
   M. Checinski, S. Dohm, S. Ehlert, S. Ehrlich, I. Gerasimov, C. Hölzer
   A. Katbashev, J. Koopman, C. Lavigne, S. Lehtola, F. März, M. Müller,
   F. Musil, H. Neugebauer, J. Pisarek, C. Plett, P. Pracht, F. Pultar,
   J. Seibert, P. Shushkov, S. Spicher, M. Stahn, M. Steiner, T. Strunk,
   J. Stückrath, T. Rose, and J. Unsleber
   
 * started run on 2026/04/17 at 12:14:23.061     

           -------------------------------------------------
          |                Calculation Setup                |
           -------------------------------------------------

          program call               : /usr/bin/xtb random_d2.10_008_m1_XTB.xyz --grad -c 0 -u 0 -P 1 --namespace random_d2.10_008_m1 --input random_d2.10_008_m1_XTB.input.tmp --acc 0.200000
          calculation namespace      : random_d2.10_008_m1
          coordinate file            : random_d2.10_008_m1_XTB.xyz
          omp threads                :                     1

   ID    Z sym.   atoms
    1    5 B      1-12

molecular fragmentation (1/2 indicates fragments):
122222222222
# atoms in fragment 1/2:     1    11
 fragment masses (1/2) :       10.81      118.92
CMA distance (Bohr)    :   9.114
constraining FC (au)   :  0.0500

           -------------------------------------------------
          |                 G F N 2 - x T B                 |
           -------------------------------------------------

        Reference                      10.1021/acs.jctc.8b01176
      * Hamiltonian:
        H0-scaling (s, p, d)           1.850000    2.230000    2.230000
        zeta-weighting                 0.500000
      * Dispersion:
        s8                             2.700000
        a1                             0.520000
        a2                             5.000000
        s9                             5.000000
      * Repulsion:
        kExp                           1.500000    1.000000
        rExp                           1.000000
      * Coulomb:
        alpha                          2.000000
        third order                    shell-resolved
        anisotropic                    true
        a3                             3.000000
        a5                             4.000000
        cn-shift                       1.200000
        cn-exp                         4.000000
        max-rad                        5.000000


          ...................................................
          :                      SETUP                      :
          :.................................................:
          :  # basis functions                  48          :
          :  # atomic orbitals                  48          :
          :  # shells                           24          :
          :  # electrons                        36          :
          :  max. iterations                   250          :
          :  Hamiltonian                  GFN2-xTB          :
          :  restarted?                      false          :
          :  GBSA solvation                  false          :
          :  PC potential                    false          :
          :  electronic temp.          300.0000000     K    :
          :  accuracy                    0.2000000          :
          :  -> integral cutoff          0.3198970E+02      :
          :  -> integral neglect         0.2000000E-08      :
          :  -> SCF convergence          0.2000000E-06 Eh   :
          :  -> wf. convergence          0.2000000E-04 e    :
          :  Broyden damping             0.4000000          :
          ...................................................

 iter      E             dE          RMSdq      gap      omega  full diag
   1    -13.0195472 -0.130195E+02  0.216E+01    0.15       0.0  T
   2     -4.7067681  0.831278E+01  0.188E+01    0.29       1.0  T
   3     24.3420645  0.290488E+02  0.306E+01    0.30       1.0  T
   4     13.4930590 -0.108490E+02  0.279E+01    0.38       1.0  T
   5     -4.4151362 -0.179082E+02  0.183E+01    0.28       1.0  T
   6     -4.3765065  0.386297E-01  0.161E+01    0.25       1.0  T
   7     -3.9031883  0.473318E+00  0.170E+01    0.12       1.0  T
   8     -7.8544803 -0.395129E+01  0.128E+01    0.16       1.0  T
   9     -0.3888232  0.746566E+01  0.203E+01    0.35       1.0  T
  10     -7.2971054 -0.690828E+01  0.144E+01    0.13       1.0  T
  11     -6.7341149  0.562990E+00  0.164E+01    0.16       1.0  T
  12     -9.3119615 -0.257785E+01  0.126E+01    0.06       1.0  T
  13    -12.3159605 -0.300400E+01  0.782E+00    0.05       1.0  T
  14    -12.1209652  0.194995E+00  0.102E+01    0.22       1.0  T
  15    -12.5206047 -0.399640E+00  0.878E+00    0.18       1.0  T
  16    -12.0614073  0.459197E+00  0.829E+00    0.07       1.0  T
  17    -12.0986388 -0.372315E-01  0.823E+00    0.07       1.0  T
  18    -11.9733353  0.125303E+00  0.846E+00    0.05       1.0  T
  19    -11.7890632  0.184272E+00  0.834E+00    0.03       1.0  T
  20    -12.1723082 -0.383245E+00  0.852E+00    0.09       1.0  T
  21    -12.4876654 -0.315357E+00  0.641E+00    0.10       1.0  T
  22    -12.9039238 -0.416258E+00  0.518E+00    0.17       1.0  T
  23    -12.9437256 -0.398018E-01  0.544E+00    0.20       1.0  T
  24    -12.8788062  0.649194E-01  0.567E+00    0.24       1.0  T
  25    -12.8524530  0.263532E-01  0.576E+00    0.25       1.0  T
  26    -12.8605793 -0.812625E-02  0.576E+00    0.24       1.0  T
  27    -12.8639041 -0.332486E-02  0.574E+00    0.25       1.0  T
  28    -12.8172590  0.466451E-01  0.585E+00    0.27       1.0  T
  29    -12.1978239  0.619435E+00  0.628E+00    0.05       1.0  T
  30    -12.2224426 -0.246187E-01  0.623E+00    0.05       1.0  T
  31    -12.2987156 -0.762730E-01  0.598E+00    0.05       1.0  T
  32    -12.1628783  0.135837E+00  0.639E+00    0.05       1.0  T
  33    -11.9616391  0.201239E+00  0.702E+00    0.04       1.0  T
  34    -11.9356241  0.260150E-01  0.705E+00    0.04       1.0  T
  35    -12.3079526 -0.372329E+00  0.620E+00    0.06       1.0  T
  36    -12.2390518  0.689008E-01  0.638E+00    0.05       1.0  T
  37    -12.5163775 -0.277326E+00  0.566E+00    0.08       1.0  T
  38    -12.6504685 -0.134091E+00  0.528E+00    0.11       1.0  T
  39    -11.5161177  0.113435E+01  0.876E+00    0.04       1.0  T
  40    -10.9030438  0.613074E+00  0.105E+01    0.03       1.0  T
  41    -11.3556940 -0.452650E+00  0.932E+00    0.04       1.0  T
  42    -11.3514575  0.423654E-02  0.931E+00    0.04       1.0  T
  43    -11.5627890 -0.211332E+00  0.867E+00    0.04       1.0  T
  44    -12.2517598 -0.688971E+00  0.648E+00    0.07       1.0  T
  45    -12.3505305 -0.987707E-01  0.620E+00    0.08       1.0  T
  46    -12.3578097 -0.727922E-02  0.618E+00    0.08       1.0  T
  47    -12.2899318  0.678779E-01  0.675E+00    0.09       1.0  T
  48    -12.2382504  0.516815E-01  0.695E+00    0.09       1.0  T
  49    -12.6994412 -0.461191E+00  0.512E+00    0.09       1.0  T
  50    -12.9786949 -0.279254E+00  0.388E+00    0.11       1.0  T
  51    -13.0674214 -0.887265E-01  0.358E+00    0.13       1.0  T
  52    -13.0963106 -0.288891E-01  0.369E+00    0.15       1.0  T
  53    -13.0970258 -0.715264E-03  0.369E+00    0.15       1.0  T
  54    -12.9469372  0.150089E+00  0.455E+00    0.10       1.0  T
  55    -12.9028525  0.440847E-01  0.477E+00    0.09       1.0  T
  56    -12.9007621  0.209039E-02  0.490E+00    0.09       1.0  T
  57    -12.8651431  0.356191E-01  0.505E+00    0.09       1.0  T
  58    -12.9533818 -0.882387E-01  0.483E+00    0.10       1.0  T
  59    -12.9597145 -0.633271E-02  0.480E+00    0.10       1.0  T
  60    -12.8307721  0.128942E+00  0.497E+00    0.09       1.0  T
  61    -13.0113361 -0.180564E+00  0.413E+00    0.11       1.0  T
  62    -13.0184953 -0.715920E-02  0.398E+00    0.12       1.0  T
  63    -13.0415367 -0.230413E-01  0.386E+00    0.12       1.0  T
  64    -13.0711243 -0.295877E-01  0.339E+00    0.14       1.0  T
  65    -13.1242256 -0.531012E-01  0.258E+00    0.19       1.0  T
  66    -13.1299840 -0.575847E-02  0.249E+00    0.20       1.0  T
  67    -13.1309932 -0.100918E-02  0.243E+00    0.20       1.0  T
  68    -13.1495260 -0.185328E-01  0.185E+00    0.24       1.0  T
  69    -13.1541320 -0.460603E-02  0.177E+00    0.25       1.0  T
  70    -13.1612402 -0.710823E-02  0.158E+00    0.28       1.0  T
  71    -13.1647096 -0.346933E-02  0.153E+00    0.28       1.0  T
  72    -13.1675439 -0.283434E-02  0.140E+00    0.29       1.0  T
  73    -13.1700787 -0.253482E-02  0.129E+00    0.29       1.0  T
  74    -13.1716046 -0.152584E-02  0.112E+00    0.29       1.0  T
  75    -13.1728802 -0.127565E-02  0.107E+00    0.28       1.0  T
  76    -13.1752138 -0.233358E-02  0.836E-01    0.28       1.0  T
  77    -13.1764033 -0.118946E-02  0.678E-01    0.28       1.0  T
  78    -13.1775110 -0.110780E-02  0.495E-01    0.27       1.0  T
  79    -13.1778224 -0.311391E-03  0.421E-01    0.26       1.0  T
  80    -13.1780447 -0.222286E-03  0.376E-01    0.25       1.0  T
  81    -13.1787338 -0.689035E-03  0.346E-01    0.25       1.0  T
  82    -13.1788415 -0.107781E-03  0.313E-01    0.25       1.0  T
  83    -13.1790180 -0.176504E-03  0.295E-01    0.25       1.0  T
  84    -13.1791053 -0.872402E-04  0.274E-01    0.25       1.0  T
  85    -13.1791845 -0.792342E-04  0.259E-01    0.25       1.0  T
  86    -13.1792364 -0.518352E-04  0.223E-01    0.26       1.0  T
  87    -13.1792783 -0.419147E-04  0.168E-01    0.26       1.0  T
  88    -13.1792990 -0.207033E-04  0.140E-01    0.26       1.0  T
  89    -13.1793272 -0.282688E-04  0.108E-01    0.26       1.0  T
  90    -13.1793396 -0.123246E-04  0.867E-02    0.26       1.0  T
  91    -13.1793478 -0.819563E-05  0.662E-02    0.26       1.0  T
  92    -13.1793503 -0.258495E-05  0.515E-02    0.26       1.0  T
  93    -13.1793518 -0.150278E-05  0.459E-02    0.26       1.0  T
  94    -13.1793537 -0.187581E-05  0.434E-02    0.26       1.0  T
  95    -13.1793577 -0.395203E-05  0.317E-02    0.26       1.0  T
  96    -13.1793588 -0.115690E-05  0.214E-02    0.26       1.3  T
  97    -13.1793588  0.365202E-07  0.160E-02    0.26       1.8  T
  98    -13.1793589 -0.122920E-06  0.124E-02    0.26       2.3  T
  99    -13.1793594 -0.520740E-06  0.919E-03    0.26       3.1  T
 100    -13.1793597 -0.226779E-06  0.818E-03    0.26       3.5  T
 101    -13.1793598 -0.175836E-06  0.720E-03    0.26       4.0  T
 102    -13.1793600 -0.149073E-06  0.612E-03    0.26       4.7  T
 103    -13.1793602 -0.212204E-06  0.493E-03    0.26       5.9  T
 104    -13.1793603 -0.949804E-07  0.421E-03    0.26       6.9  T
 105    -13.1793603 -0.482941E-07  0.388E-03    0.26       7.4  T
 106    -13.1793604 -0.393297E-07  0.363E-03    0.26       7.9  T
 107    -13.1793605 -0.792523E-07  0.308E-03    0.26       9.4  T
 108    -13.1793605 -0.584339E-07  0.258E-03    0.26      11.2  T
 109    -13.1793606 -0.366956E-07  0.229E-03    0.26      12.6  T
 110    -13.1793606 -0.360375E-07  0.203E-03    0.26      14.2  T
 111    -13.1793606 -0.268411E-07  0.178E-03    0.26      16.2  T
 112    -13.1793606 -0.176836E-07  0.150E-03    0.26      19.2  T
 113    -13.1793607 -0.126960E-07  0.123E-03    0.26      23.5  T
 114    -13.1793607 -0.149171E-07  0.879E-04    0.26      32.8  T
 115    -13.1793607 -0.462214E-08  0.713E-04    0.26      40.5  T
 116    -13.1793607 -0.278493E-08  0.594E-04    0.26      48.6  T
 117    -13.1793607 -0.196687E-08  0.474E-04    0.26      60.9  T
 118    -13.1793607 -0.150820E-08  0.333E-04    0.26      86.6  T
 119    -13.1793607 -0.944876E-09  0.201E-04    0.26     143.4  T
 120    -13.1793607 -0.541858E-09  0.544E-05    0.26     530.5  T
 121    -13.1793607 -0.295142E-10  0.355E-05    0.26     814.3  T

   *** convergence criteria satisfied after 121 iterations ***

         #    Occupation            Energy/Eh            Energy/eV
      -------------------------------------------------------------
         1        2.0000           -0.4108122             -11.1788
       ...           ...                  ...                  ...
        12        2.0000           -0.2923226              -7.9545
        13        2.0000           -0.2842059              -7.7336
        14        2.0000           -0.2751102              -7.4861
        15        2.0000           -0.2678064              -7.2874
        16        2.0000           -0.2649360              -7.2093
        17        2.0000           -0.2634478              -7.1688
        18        1.9864           -0.2573534              -7.0029 (HOMO)
        19        0.0122           -0.2477846              -6.7426 (LUMO)
        20        0.0014           -0.2457178              -6.6863
        21        0.0000           -0.2405471              -6.5456
        22        0.0000           -0.2382655              -6.4835
        23        0.0000           -0.2378966              -6.4735
       ...           ...                  ...                  ...
        48                          2.0552209              55.9254
      -------------------------------------------------------------
                  HL-Gap            0.0095688 Eh            0.2604 eV
             Fermi-level           -0.2526200 Eh           -6.8741 eV

 SCC (total)                   0 d,  0 h,  0 min,  0.191 sec
 SCC setup                      ...        0 min,  0.000 sec (  0.074%)
 Dispersion                     ...        0 min,  0.000 sec (  0.046%)
 classical contributions        ...        0 min,  0.000 sec (  0.018%)
 integral evaluation            ...        0 min,  0.003 sec (  1.311%)
 iterations                     ...        0 min,  0.183 sec ( 95.779%)
 molecular gradient             ...        0 min,  0.005 sec (  2.641%)
 printout                       ...        0 min,  0.000 sec (  0.119%)

         :::::::::::::::::::::::::::::::::::::::::::::::::::::
         ::                     SUMMARY                     ::
         :::::::::::::::::::::::::::::::::::::::::::::::::::::
         :: total energy             -12.976318433069 Eh    ::
         :: gradient norm              0.505212985266 Eh/a0 ::
         :: HOMO-LUMO gap              0.260381280324 eV    ::
         ::.................................................::
         :: SCC energy               -13.179360681850 Eh    ::
         :: -> isotropic ES            0.053778215596 Eh    ::
         :: -> anisotropic ES          0.002275759084 Eh    ::
         :: -> anisotropic XC         -0.044684471214 Eh    ::
         :: -> dispersion             -0.020298385488 Eh    ::
         :: repulsion energy           0.202712112826 Eh    ::
         :: add. restraining           0.000000000000 Eh    ::
         :: total charge              -0.000000000000 e     ::
         :::::::::::::::::::::::::::::::::::::::::::::::::::::


Property printout bound to 'properties.out'

           -------------------------------------------------
          | TOTAL ENERGY              -12.976318433069 Eh   |
          | GRADIENT NORM               0.505212985266 Eh/α |
          | HOMO-LUMO GAP               0.260381280324 eV   |
           -------------------------------------------------

------------------------------------------------------------------------
 * finished run on 2026/04/17 at 12:14:23.265     
------------------------------------------------------------------------
 total:
 * wall-time:     0 d,  0 h,  0 min,  0.203 sec
 *  cpu-time:     0 d,  0 h,  0 min,  0.203 sec
 * ratio c/w:     0.998 speedup
 SCF:
 * wall-time:     0 d,  0 h,  0 min,  0.191 sec
 *  cpu-time:     0 d,  0 h,  0 min,  0.191 sec
 * ratio c/w:     0.998 speedup


-------------------------   --------------------
FINAL SINGLE POINT ENERGY       -12.976318433070
-------------------------   --------------------


-------------
DIPOLE MOMENT
-------------
                                X             Y             Z
Total Dipole Moment    :      1.23600      -0.31400       0.31600
                        -----------------------------------------
Magnitude (a.u.)       :      1.31383
Magnitude (Debye)      :      3.33949


------------------
CARTESIAN GRADIENT
------------------

   1   B   :    0.006686259    0.038155787   -0.007744134
   2   B   :    0.044307433    0.001363392   -0.047385535
   3   B   :   -0.077989304   -0.018203273   -0.051895841
   4   B   :   -0.040327819    0.256899061   -0.071714538
   5   B   :    0.032376023   -0.287207329    0.099131053
   6   B   :   -0.021650116    0.060745906   -0.023976463
   7   B   :   -0.011539008   -0.033449188    0.009096291
   8   B   :    0.068724601   -0.044852643    0.011780232
   9   B   :   -0.011432617   -0.008615005   -0.053666925
  10   B   :   -0.085174208    0.153567730   -0.007844697
  11   B   :    0.069187523   -0.105165929    0.063036953
  12   B   :    0.026831234   -0.013238507    0.081183604

Difference to translation invariance:
           :   -0.0000000000   -0.0000000000   -0.0000000000

Difference to rotation invariance:
           :    0.0000000047   -0.0000000150    0.0000000359

Norm of the Cartesian gradient     ...    0.5052129853
RMS gradient                       ...    0.0842021642
MAX gradient                       ...    0.2872073290
------------------------------------------------------------------------------
                         ORCA GEOMETRY RELAXATION STEP
------------------------------------------------------------------------------

Reading the OPT-File                    .... done
Getting information on internals        .... done
Copying old internal coords+grads       .... done
Making the new internal coordinates     .... (2022 redundants) done
Validating the new internal coordinates .... (2022 redundants) done
Calculating the B-matrix                .... done
Calculating the G,G- and P matrices     .... done
Transforming gradient to internals      .... done
Projecting the internal gradient        .... done
Number of atoms                         ....  12
Number of internal coordinates          .... 141
Current Energy                          ....   -12.976318433 Eh
Current gradient norm                   ....     0.505212985 Eh/bohr
Maximum allowed component of the step   ....  0.300
Current trust radius                    ....  0.300
Evaluating the initial hessian          ....  (Almloef) done
Projecting the Hessian                  .... done
Forming the augmented Hessian           .... done
Diagonalizing the augmented Hessian     .... done
Last element of RFO vector              ....  0.795243248
Lowest eigenvalues of augmented Hessian:
 -0.150742166  0.010198014  0.010919816  0.011312792  0.014489786
Length of the computed step             ....  0.762396293
Warning: the length of the step is outside the trust region - taking restricted step instead
The input lambda is                     ....     0.009000
   iter:   5  x=   -0.000693  g=19182.977265 f(x)=    81.932980
   iter:  10  x=   -0.116743  g=   35.357436 f(x)=     1.686219
   iter:  15  x=   -0.520358  g=    0.308916 f(x)=     0.009484
The output lambda is                    ....    -0.522964 (19 iterations)
The final length of the internal step   ....  0.300000000
Converting the step to Cartesian space:
 Initial RMS(Int)=    0.0252645576
Transforming coordinates:
 Iter   0:  RMS(Cart)=    0.0325108133 RMS(Int)=    0.0251951059
done
Storing new coordinates                 .... done

                                .--------------------.
          ----------------------|Geometry convergence|-------------------------
          Item                value                   Tolerance       Converged
          ---------------------------------------------------------------------
          RMS gradient        0.0207269948            0.0000300000      NO
          MAX gradient        0.1141155366            0.0001000000      NO
          RMS step            0.0252645576            0.0006000000      NO
          MAX step            0.1020281917            0.0010000000      NO
          -------------------------------------------------------------------------
          ........................................................
          Max(Bonds)      0.0540      Max(Angles)    1.67
          Max(Dihed)        3.23      Max(Improp)    0.00
          ---------------------------------------------------------------------

The optimization has not yet converged - more geometry cycles are needed


    ---------------------------------------------------------------------------
                         Redundant Internal Coordinates
                            (Angstroem and degrees)

        Definition                    Value    dE/dq     Step     New-Value
    ----------------------------------------------------------------------------
     1. B(B   3,B   2)                2.7932  0.028061 -0.0263    2.7669   
     2. B(B   4,B   1)                2.3925  0.047580 -0.0473    2.3452   
     3. B(B   4,B   3)                1.2930 -0.114116  0.0540    1.3470   
     4. B(B   5,B   1)                1.5154  0.043390 -0.0232    1.4923   
     5. B(B   6,B   0)                2.9882  0.039482 -0.0392    2.9490   
     6. B(B   6,B   2)                3.6608 -0.005346  0.0039    3.6646   
     7. B(B   7,B   3)                2.4601  0.019394 -0.0171    2.4430   
     8. B(B   7,B   4)                2.7184  0.002088 -0.0095    2.7089   
     9. B(B   8,B   3)                2.4779 -0.002344 -0.0098    2.4681   
    10. B(B   8,B   4)                2.3789  0.018668 -0.0216    2.3572   
    11. B(B   9,B   7)                1.8343  0.011164 -0.0234    1.8109   
    12. B(B   9,B   4)                2.9561  0.036436 -0.0285    2.9276   
    13. B(B  10,B   5)                2.2189  0.051905 -0.0479    2.1711   
    14. B(B  10,B   9)                1.3710 -0.102682  0.0395    1.4105   
    15. B(B  11,B   3)                2.7406  0.030565 -0.0271    2.7135   
    16. B(B  11,B   2)                1.9373  0.060107 -0.0516    1.8857   
    17. B(B  11,B   7)                2.6922  0.008683 -0.0171    2.6751   
    18. B(B  11,B   6)                4.5716  0.013990 -0.0126    4.5590   
    19. A(B   4,B   1,B   5)          108.47 -0.006726    0.30    108.77   
    20. A(B   3,B   2,B   6)          112.10 -0.003043    0.22    112.32   
    21. A(B   3,B   2,B  11)           68.06 -0.002953    0.30     68.36   
    22. A(B   6,B   2,B  11)          105.31 -0.006829    0.64    105.95   
    23. A(B   2,B   3,B   7)          101.04  0.006181   -0.69    100.35   
    24. A(B   2,B   3,B  11)           40.97  0.008100   -0.73     40.24   
    25. A(B   2,B   3,B   4)          101.83 -0.009055    0.55    102.38   
    26. A(B   2,B   3,B   8)          107.23 -0.024653    1.63    108.86   
    27. A(B   8,B   3,B  11)          148.20 -0.016495    0.90    149.10   
    28. A(B   7,B   3,B   8)          146.65  0.030533   -1.67    144.97   
    29. A(B   4,B   3,B  11)          110.00 -0.003765    0.19    110.19   
    30. A(B   7,B   3,B  11)           62.07 -0.004263    0.17     62.24   
    31. A(B   4,B   3,B   7)           86.99  0.015340   -0.86     86.13   
    32. A(B   4,B   3,B   8)           70.37  0.017842   -1.07     69.30   
    33. A(B   1,B   4,B   3)          146.09 -0.006833    0.38    146.47   
    34. A(B   3,B   4,B   8)           78.84  0.008673   -0.44     78.40   
    35. A(B   1,B   4,B   7)           99.35 -0.008775    0.44     99.79   
    36. A(B   7,B   4,B   9)           37.42 -0.001012   -0.20     37.23   
    37. A(B   7,B   4,B   8)          136.15  0.021304   -1.08    135.07   
    38. A(B   1,B   4,B   9)           70.16 -0.004317    0.33     70.49   
    39. A(B   3,B   4,B   7)           64.65  0.009653   -0.52     64.14   
    40. A(B   3,B   4,B   9)          101.83  0.008590   -0.70    101.13   
    41. A(B   8,B   4,B   9)          159.89  0.011169   -0.63    159.27   
    42. A(B   1,B   4,B   8)           97.89 -0.005310    0.35     98.24   
    43. A(B   1,B   5,B  10)          106.20 -0.016518    0.95    107.16   
    44. A(B   2,B   6,B  11)           24.13  0.007465   -0.69     23.43   
    45. A(B   0,B   6,B   2)          124.36  0.002227   -0.24    124.12   
    46. A(B   0,B   6,B  11)          113.32 -0.000952    0.06    113.38   
    47. A(B   3,B   7,B   9)          106.48 -0.015248    1.00    107.48   
    48. A(B   9,B   7,B  11)          112.34 -0.017377    1.13    113.47   
    49. A(B   3,B   7,B   4)           28.36 -0.024992    1.37     29.73   
    50. A(B   4,B   7,B  11)           78.05 -0.015070    0.82     78.86   
    51. A(B   4,B   7,B   9)           78.34  0.009586   -0.37     77.96   
    52. A(B   3,B   7,B  11)           64.08  0.003983   -0.24     63.85   
    53. A(B   3,B   8,B   4)           30.79 -0.026515    1.51     32.30   
    54. A(B   7,B   9,B  10)          144.84 -0.001340    0.10    144.95   
    55. A(B   4,B   9,B  10)           90.45  0.007626   -0.54     89.91   
    56. A(B   4,B   9,B   7)           64.24 -0.008574    0.57     64.81   
    57. A(B   5,B  10,B   9)          107.35  0.013906   -0.28    107.08   
    58. A(B   3,B  11,B   7)           53.84  0.000281    0.07     53.91   
    59. A(B   3,B  11,B   6)           91.11 -0.004809    0.37     91.48   
    60. A(B   2,B  11,B   3)           70.97 -0.005147    0.43     71.40   
    61. A(B   6,B  11,B   7)          109.04  0.007512   -0.40    108.64   
    62. A(B   2,B  11,B   7)          121.72 -0.000630    0.23    121.96   
    63. A(B   2,B  11,B   6)           50.56 -0.000635    0.05     50.62   
    64. D(B   7,B   3,B   2,B  11)    -17.75  0.011996   -0.69    -18.44   
    65. D(B   4,B   3,B   2,B   6)     -8.70 -0.011213    0.99     -7.71   
    66. D(B  11,B   3,B   2,B   6)     98.26 -0.007724    0.75     99.01   
    67. D(B   4,B   3,B   2,B  11)   -106.96 -0.003489    0.24   -106.71   
    68. D(B   8,B   3,B   2,B  11)   -179.83 -0.016897    1.02   -178.81   
    69. D(B   7,B   3,B   2,B   6)     80.51  0.004272    0.06     80.57   
    70. D(B   1,B   4,B   3,B  11)    126.31  0.009939   -0.69    125.62   
    71. D(B   1,B   4,B   3,B   7)     67.52  0.006555   -0.42     67.10   
    72. D(B   3,B   4,B   1,B   5)   -135.82 -0.004865    0.73   -135.09   
    73. D(B   7,B   4,B   3,B   8)   -155.07 -0.011707    0.55   -154.53   
    74. D(B   1,B   4,B   3,B   2)    168.18  0.016117   -1.31    166.87   
    75. D(B   7,B   4,B   3,B   2)    100.66  0.009562   -0.89     99.77   
    76. D(B   7,B   4,B   3,B  11)     58.79  0.003384   -0.27     58.52   
    77. D(B   1,B   4,B   3,B   8)    -87.55 -0.005152    0.12    -87.43   
    78. D(B   9,B   4,B   1,B   5)    -54.23  0.008603   -0.29    -54.52   
    79. D(B   7,B   4,B   1,B   5)    -78.01  0.004412    0.18    -77.83   
    80. D(B   9,B   4,B   3,B   7)     -4.41 -0.000287    0.12     -4.29   
    81. D(B   8,B   4,B   1,B   5)    142.47 -0.013073    1.03    143.50   
    82. D(B  10,B   5,B   1,B   4)     40.31  0.004261   -0.03     40.28   
    83. D(B  11,B   6,B   2,B   3)    -72.12  0.006007   -0.58    -72.70   
    84. D(B   0,B   6,B   2,B  11)     69.32  0.003085   -0.29     69.03   
    85. D(B   0,B   6,B   2,B   3)     -2.80  0.009093   -0.87     -3.67   
    86. D(B   9,B   7,B   4,B   3)   -172.88  0.000405   -0.15   -173.03   
    87. D(B  11,B   7,B   3,B   8)    160.77  0.016331   -1.13    159.64   
    88. D(B  11,B   7,B   3,B   2)     13.07 -0.006013    0.28     13.36   
    89. D(B  11,B   7,B   3,B   4)    114.55 -0.012437    0.70    115.24   
    90. D(B   9,B   7,B   3,B  11)   -107.27  0.012527   -0.82   -108.09   
    91. D(B   9,B   7,B   3,B   4)      7.27  0.000091   -0.12      7.15   
    92. D(B   9,B   7,B   4,B   1)     38.62  0.007409   -0.56     38.06   
    93. D(B   9,B   7,B   3,B   8)     53.50  0.028859   -1.95     51.55   
    94. D(B  11,B   7,B   4,B   9)    116.13 -0.016886    1.07    117.20   
    95. D(B  11,B   7,B   4,B   8)    -93.40 -0.015516    0.95    -92.45   
    96. D(B  11,B   7,B   4,B   1)    154.75 -0.009477    0.52    155.26   
    97. D(B   9,B   7,B   3,B   2)    -94.20  0.006514   -0.54    -94.73   
    98. D(B  11,B   7,B   4,B   3)    -56.75 -0.016481    0.92    -55.82   
    99. D(B   9,B   7,B   4,B   8)    150.47  0.001371   -0.12    150.35   
   100. D(B   3,B   8,B   4,B   9)     93.95  0.048508   -3.23     90.72   
   101. D(B   3,B   8,B   4,B   7)     33.36  0.001029   -0.13     33.23   
   102. D(B   3,B   8,B   4,B   1)    145.76 -0.006568    0.35    146.11   
   103. D(B   4,B   8,B   3,B  11)     96.53  0.023938   -1.48     95.05   
   104. D(B   4,B   8,B   3,B   2)     96.74  0.002851   -0.21     96.53   
   105. D(B   4,B   8,B   3,B   7)    -49.96 -0.026186    1.68    -48.27   
   106. D(B   4,B   9,B   7,B   3)     -3.52  0.002927   -0.10     -3.62   
   107. D(B   4,B   9,B   7,B  11)    -71.73  0.006204   -0.34    -72.07   
   108. D(B  10,B   9,B   7,B   4)     47.92  0.002264   -0.27     47.66   
   109. D(B  10,B   9,B   7,B   3)     44.40  0.005191   -0.37     44.04   
   110. D(B  10,B   9,B   7,B  11)    -23.81  0.008468   -0.61    -24.42   
   111. D(B  10,B   9,B   4,B   7)   -154.70  0.001894   -0.19   -154.88   
   112. D(B  10,B   9,B   4,B   1)     66.20  0.012529   -0.95     65.25   
   113. D(B  10,B   9,B   4,B   3)   -148.12  0.003002   -0.37   -148.49   
   114. D(B   7,B   9,B   4,B   8)    -83.25 -0.049877    3.14    -80.11   
   115. D(B   7,B   9,B   4,B   1)   -139.10  0.010635   -0.77   -139.87   
   116. D(B   7,B   9,B   4,B   3)      6.57  0.001108   -0.18      6.39   
   117. D(B   5,B  10,B   9,B   4)    -55.27 -0.009377    0.84    -54.43   
   118. D(B   5,B  10,B   9,B   7)    -97.22 -0.007549    0.81    -96.41   
   119. D(B   9,B  10,B   5,B   1)     24.12  0.003617   -0.34     23.78   
   120. D(B   2,B  11,B   3,B   7)    160.21  0.013109   -0.79    159.42   
   121. D(B   2,B  11,B   3,B   4)     85.05 -0.006201    0.32     85.37   
   122. D(B   3,B  11,B   2,B   6)   -108.07  0.001494   -0.08   -108.15   
   123. D(B   7,B  11,B   2,B   3)     18.75 -0.012427    0.81     19.56   
   124. D(B   7,B  11,B   2,B   6)    -89.32 -0.010933    0.73    -88.59   
   125. D(B   2,B  11,B   3,B   8)      0.30 -0.030726    1.86      2.16   
   126. D(B   6,B  11,B   2,B   3)    108.07 -0.001494    0.08    108.15   
   127. D(B   6,B  11,B   7,B   4)    -50.68 -0.005865    0.14    -50.54   
   128. D(B   6,B  11,B   7,B   3)    -76.89  0.012560   -0.87    -77.76   
   129. D(B   6,B  11,B   7,B   9)     21.23  0.003694   -0.28     20.96   
   130. D(B   2,B  11,B   7,B   3)    -22.11  0.015676   -1.01    -23.12   
   131. D(B   2,B  11,B   7,B   9)     76.02  0.006810   -0.42     75.60   
   132. D(B   3,B  11,B   6,B   2)     64.01 -0.002833    0.27     64.28   
   133. D(B   3,B  11,B   6,B   0)    -58.73 -0.004028    0.38    -58.35   
   134. D(B   7,B  11,B   6,B   2)    115.87 -0.006415    0.60    116.47   
   135. D(B   7,B  11,B   6,B   0)     -6.87 -0.007611    0.72     -6.15   
   136. D(B   2,B  11,B   6,B   0)   -122.74 -0.001195    0.12   -122.63   
   137. D(B   2,B  11,B   7,B   4)      4.10 -0.002749    0.00      4.10   
   138. D(B   6,B  11,B   3,B   8)    -46.95 -0.030587    1.83    -45.12   
   139. D(B   6,B  11,B   3,B   2)    -47.26  0.000139   -0.03    -47.28   
   140. D(B   6,B  11,B   3,B   7)    112.95  0.013248   -0.82    112.13   
   141. D(B   6,B  11,B   3,B   4)     37.79 -0.006062    0.29     38.08   
    ----------------------------------------------------------------------------

Geometry step timings:
Preparation and reading OPT file:      0.000 s ( 0.575 %)
Internal coordinates            :      0.000 s ( 0.881 %)
B/P matrices and projection     :      0.002 s (22.996 %)
Hessian update/contruction      :      0.001 s (12.691 %)
Making the step                 :      0.003 s (42.810 %)
Converting the step to Cartesian:      0.000 s ( 2.301 %)
Storing new data                :      0.000 s ( 0.918 %)
Checking convergence            :      0.000 s ( 0.722 %)
Final printing                  :      0.001 s (16.094 %)
Total time                      :      0.008 s

Time for energy+gradient        :      0.215 s
Time for complete geometry iter :      0.224 s

         *************************************************************
         *                GEOMETRY OPTIMIZATION CYCLE   2            *
         *************************************************************
---------------------------------
CARTESIAN COORDINATES (ANGSTROEM)
---------------------------------
  B    -3.175811    2.965447    0.630882
  B     1.366845    1.541041   -1.755807
  B    -1.496663   -2.640199    0.544438
  B     0.793921   -1.818210   -0.771990
  B     0.519976   -0.529171   -1.050931
  B     0.815904    2.610816   -0.873119
  B    -3.775914    0.143507    1.241644
  B     2.097362   -0.961648    1.108426
  B     0.277710   -1.535207   -3.168838
  B     1.802229    0.822122    1.207409
  B     0.821926    1.834927    1.154641
  B    -0.047485   -2.433424    1.733245

----------------------------
CARTESIAN COORDINATES (A.U.)
----------------------------
  NO LB    ZA    FRAG    MASS        X           Y           Z
   0 B   5.0000    0    10.810   -6.001413    5.603882    1.192194
   1 B   5.0000    0    10.810    2.582963    2.912145   -3.317994
   2 B   5.0000    0    10.810   -2.828283   -4.989254    1.028839
   3 B   5.0000    0    10.810    1.500293   -3.435919   -1.458849
   4 B   5.0000    0    10.810    0.982613   -0.999988   -1.985973
   5 B   5.0000    0    10.810    1.541836    4.933726   -1.649957
   6 B   5.0000    0    10.810   -7.135443    0.271189    2.346368
   7 B   5.0000    0    10.810    3.963439   -1.817251    2.094622
   8 B   5.0000    0    10.810    0.524796   -2.901121   -5.988236
   9 B   5.0000    0    10.810    3.405719    1.553586    2.281671
  10 B   5.0000    0    10.810    1.553215    3.467509    2.181955
  11 B   5.0000    0    10.810   -0.089734   -4.598504    3.275359

      -----------------------------------------------------------      
     |                   =====================                   |     
     |                           x T B                           |     
     |                   =====================                   |     
     |                         S. Grimme                         |     
     |          Mulliken Center for Theoretical Chemistry        |     
     |                    University of Bonn                     |     
      -----------------------------------------------------------      

   * xtb version 6.6.1 (unknown) compiled by 'builduser@buildhost' on 2023-08-07

   xtb is free software: you can redistribute it and/or modify it under
   the terms of the GNU Lesser General Public License as published by
   the Free Software Foundation, either version 3 of the License, or
   (at your option) any later version.
   
   xtb is distributed in the hope that it will be useful,
   but WITHOUT ANY WARRANTY; without even the implied warranty of
   MERCHANTABILITY or FITNESS FOR A PARTICULAR PURPOSE.  See the
   GNU Lesser General Public License for more details.
   
   Cite this work as:
   * C. Bannwarth, E. Caldeweyher, S. Ehlert, A. Hansen, P. Pracht,
     J. Seibert, S. Spicher, S. Grimme, WIREs Comput. Mol. Sci., 2020, 11,
     e01493. DOI: 10.1002/wcms.1493
   
   for GFN2-xTB:
   * C. Bannwarth, S. Ehlert and S. Grimme., J. Chem. Theory Comput., 2019,
     15, 1652-1671. DOI: 10.1021/acs.jctc.8b01176
   for GFN1-xTB:
   * S. Grimme, C. Bannwarth, P. Shushkov, J. Chem. Theory Comput., 2017,
     13, 1989-2009. DOI: 10.1021/acs.jctc.7b00118
   for GFN0-xTB:
   * P. Pracht, E. Caldeweyher, S. Ehlert, S. Grimme, ChemRxiv, 2019, preprint.
     DOI: 10.26434/chemrxiv.8326202.v1
   for GFN-FF:
   * S. Spicher and S. Grimme, Angew. Chem. Int. Ed., 2020, 59, 15665-15673.
     DOI: 10.1002/anie.202004239
   
   for ALPB and GBSA implicit solvation:
   * S. Ehlert, M. Stahn, S. Spicher, S. Grimme, J. Chem. Theory Comput.,
     2021, 17, 4250-4261. DOI: 10.1021/acs.jctc.1c00471
   
   for DFT-D4:
   * E. Caldeweyher, C. Bannwarth and S. Grimme, J. Chem. Phys., 2017,
     147, 034112. DOI: 10.1063/1.4993215
   * E. Caldeweyher, S. Ehlert, A. Hansen, H. Neugebauer, S. Spicher,
     C. Bannwarth and S. Grimme, J. Chem. Phys., 2019, 150, 154122.
     DOI: 10.1063/1.5090222
   * E. Caldeweyher, J.-M. Mewes, S. Ehlert and S. Grimme, Phys. Chem. Chem. Phys.
     2020, 22, 8499-8512. DOI: 10.1039/D0CP00502A
   
   for sTDA-xTB:
   * S. Grimme and C. Bannwarth, J. Chem. Phys., 2016, 145, 054103.
     DOI: 10.1063/1.4959605
   
   in the mass-spec context:
   * V. Asgeirsson, C. Bauer and S. Grimme, Chem. Sci., 2017, 8, 4879.
     DOI: 10.1039/c7sc00601b
   * J. Koopman and S. Grimme, ACS Omega 2019, 4, 12, 15120-15133.
     DOI: 10.1021/acsomega.9b02011
   
   for metadynamics refer to:
   * S. Grimme, J. Chem. Theory Comput., 2019, 155, 2847-2862
     DOI: 10.1021/acs.jctc.9b00143
   
   for SPH calculations refer to:
   * S. Spicher and S. Grimme, J. Chem. Theory Comput., 2021, 17, 1701-1714
     DOI: 10.1021/acs.jctc.0c01306
   
   with help from (in alphabetical order)
   P. Atkinson, C. Bannwarth, F. Bohle, G. Brandenburg, E. Caldeweyher
   M. Checinski, S. Dohm, S. Ehlert, S. Ehrlich, I. Gerasimov, C. Hölzer
   A. Katbashev, J. Koopman, C. Lavigne, S. Lehtola, F. März, M. Müller,
   F. Musil, H. Neugebauer, J. Pisarek, C. Plett, P. Pracht, F. Pultar,
   J. Seibert, P. Shushkov, S. Spicher, M. Stahn, M. Steiner, T. Strunk,
   J. Stückrath, T. Rose, and J. Unsleber
   
 * started run on 2026/04/17 at 12:14:23.285     

           -------------------------------------------------
          |                Calculation Setup                |
           -------------------------------------------------

          program call               : /usr/bin/xtb random_d2.10_008_m1_XTB.xyz --grad -c 0 -u 0 -P 1 --namespace random_d2.10_008_m1 --input random_d2.10_008_m1_XTB.input.tmp --acc 0.200000
          calculation namespace      : random_d2.10_008_m1
          coordinate file            : random_d2.10_008_m1_XTB.xyz
          omp threads                :                     1

   ID    Z sym.   atoms
    1    5 B      1-12

molecular fragmentation (1/2 indicates fragments):
122222222222
# atoms in fragment 1/2:     1    11
 fragment masses (1/2) :       10.81      118.92
CMA distance (Bohr)    :   9.051
constraining FC (au)   :  0.0500

           -------------------------------------------------
          |                 G F N 2 - x T B                 |
           -------------------------------------------------

        Reference                      10.1021/acs.jctc.8b01176
      * Hamiltonian:
        H0-scaling (s, p, d)           1.850000    2.230000    2.230000
        zeta-weighting                 0.500000
      * Dispersion:
        s8                             2.700000
        a1                             0.520000
        a2                             5.000000
        s9                             5.000000
      * Repulsion:
        kExp                           1.500000    1.000000
        rExp                           1.000000
      * Coulomb:
        alpha                          2.000000
        third order                    shell-resolved
        anisotropic                    true
        a3                             3.000000
        a5                             4.000000
        cn-shift                       1.200000
        cn-exp                         4.000000
        max-rad                        5.000000

q/qsh data taken from xtbrestart
CAMM data taken from xtbrestart

          ...................................................
          :                      SETUP                      :
          :.................................................:
          :  # basis functions                  48          :
          :  # atomic orbitals                  48          :
          :  # shells                           24          :
          :  # electrons                        36          :
          :  max. iterations                   250          :
          :  Hamiltonian                  GFN2-xTB          :
          :  restarted?                       true          :
          :  GBSA solvation                  false          :
          :  PC potential                    false          :
          :  electronic temp.          300.0000000     K    :
          :  accuracy                    0.2000000          :
          :  -> integral cutoff          0.3198970E+02      :
          :  -> integral neglect         0.2000000E-08      :
          :  -> SCF convergence          0.2000000E-06 Eh   :
          :  -> wf. convergence          0.2000000E-04 e    :
          :  Broyden damping             0.4000000          :
          ...................................................

 iter      E             dE          RMSdq      gap      omega  full diag
   1    -13.1906347 -0.131906E+02  0.103E+00    0.25       0.0  T
   2    -12.6845943  0.506040E+00  0.462E+00    0.28       1.0  T
   3    -13.1064425 -0.421848E+00  0.192E+00    0.25       1.0  T
   4    -13.0774393  0.290033E-01  0.278E+00    0.19       1.0  T
   5    -13.0705692  0.687005E-02  0.242E+00    0.20       1.0  T
   6    -13.0831332 -0.125640E-01  0.253E+00    0.21       1.0  T
   7    -13.1263996 -0.432664E-01  0.163E+00    0.22       1.0  T
   8    -13.1832226 -0.568229E-01  0.879E-01    0.23       1.0  T
   9    -13.1837819 -0.559340E-03  0.722E-01    0.25       1.0  T
  10    -13.1921731 -0.839122E-02  0.481E-01    0.25       1.0  T
  11    -13.1935248 -0.135162E-02  0.380E-01    0.25       1.0  T
  12    -13.1941954 -0.670665E-03  0.326E-01    0.25       1.0  T
  13    -13.1946154 -0.419946E-03  0.250E-01    0.25       1.0  T
  14    -13.1947396 -0.124208E-03  0.215E-01    0.26       1.0  T
  15    -13.1950386 -0.299047E-03  0.163E-01    0.25       1.0  T
  16    -13.1951192 -0.806241E-04  0.147E-01    0.25       1.0  T
  17    -13.1951192  0.306832E-07  0.147E-01    0.25       1.0  T
  18    -13.1949725  0.146674E-03  0.150E-01    0.25       1.0  T
  19    -13.1951276 -0.155075E-03  0.834E-02    0.25       1.0  T
  20    -13.1951437 -0.160423E-04  0.740E-02    0.25       1.0  T
  21    -13.1951798 -0.361084E-04  0.499E-02    0.25       1.0  T
  22    -13.1952206 -0.408773E-04  0.163E-02    0.25       1.8  T
  23    -13.1952202  0.430097E-06  0.159E-02    0.25       1.8  T
  24    -13.1952228 -0.255086E-05  0.410E-03    0.25       7.0  T
  25    -13.1952226  0.200950E-06  0.641E-03    0.25       4.5  T
  26    -13.1952229 -0.316525E-06  0.132E-03    0.25      21.9  T
  27    -13.1952229 -0.131095E-07  0.823E-04    0.25      35.1  T
  28    -13.1952229 -0.462931E-08  0.538E-04    0.25      53.6  T
  29    -13.1952229 -0.150042E-08  0.209E-04    0.25     138.1  T
  30    -13.1952229 -0.382220E-09  0.855E-05    0.25     337.5  T
  31    -13.1952229 -0.267377E-10  0.266E-05    0.25    1087.3  T

   *** convergence criteria satisfied after 31 iterations ***

         #    Occupation            Energy/Eh            Energy/eV
      -------------------------------------------------------------
         1        2.0000           -0.4106003             -11.1730
       ...           ...                  ...                  ...
        12        2.0000           -0.2919916              -7.9455
        13        2.0000           -0.2823331              -7.6827
        14        2.0000           -0.2750283              -7.4839
        15        2.0000           -0.2677181              -7.2850
        16        2.0000           -0.2641548              -7.1880
        17        2.0000           -0.2627971              -7.1511
        18        1.9850           -0.2569717              -6.9926 (HOMO)
        19        0.0144           -0.2476530              -6.7390 (LUMO)
        20        0.0007           -0.2447092              -6.6589
        21        0.0000           -0.2389998              -6.5035
        22        0.0000           -0.2376013              -6.4655
        23        0.0000           -0.2372687              -6.4564
       ...           ...                  ...                  ...
        48                          1.6229134              44.1617
      -------------------------------------------------------------
                  HL-Gap            0.0093186 Eh            0.2536 eV
             Fermi-level           -0.2523324 Eh           -6.8663 eV

 SCC (total)                   0 d,  0 h,  0 min,  0.036 sec
 SCC setup                      ...        0 min,  0.000 sec (  0.438%)
 Dispersion                     ...        0 min,  0.000 sec (  0.266%)
 classical contributions        ...        0 min,  0.000 sec (  0.101%)
 integral evaluation            ...        0 min,  0.002 sec (  6.459%)
 iterations                     ...        0 min,  0.028 sec ( 78.589%)
 molecular gradient             ...        0 min,  0.005 sec ( 13.381%)
 printout                       ...        0 min,  0.000 sec (  0.703%)

         :::::::::::::::::::::::::::::::::::::::::::::::::::::
         ::                     SUMMARY                     ::
         :::::::::::::::::::::::::::::::::::::::::::::::::::::
         :: total energy             -13.037490964045 Eh    ::
         :: gradient norm              0.355017904767 Eh/a0 ::
         :: HOMO-LUMO gap              0.253572800244 eV    ::
         ::.................................................::
         :: SCC energy               -13.195222894601 Eh    ::
         :: -> isotropic ES            0.054725899094 Eh    ::
         :: -> anisotropic ES          0.002315208741 Eh    ::
         :: -> anisotropic XC         -0.044987635071 Eh    ::
         :: -> dispersion             -0.020248958413 Eh    ::
         :: repulsion energy           0.157406948763 Eh    ::
         :: add. restraining           0.000000000000 Eh    ::
         :: total charge               0.000000000000 e     ::
         :::::::::::::::::::::::::::::::::::::::::::::::::::::


Property printout bound to 'properties.out'

           -------------------------------------------------
          | TOTAL ENERGY              -13.037490964045 Eh   |
          | GRADIENT NORM               0.355017904767 Eh/α |
          | HOMO-LUMO GAP               0.253572800244 eV   |
           -------------------------------------------------

------------------------------------------------------------------------
 * finished run on 2026/04/17 at 12:14:23.332     
------------------------------------------------------------------------
 total:
 * wall-time:     0 d,  0 h,  0 min,  0.047 sec
 *  cpu-time:     0 d,  0 h,  0 min,  0.047 sec
 * ratio c/w:     0.998 speedup
 SCF:
 * wall-time:     0 d,  0 h,  0 min,  0.036 sec
 *  cpu-time:     0 d,  0 h,  0 min,  0.036 sec
 * ratio c/w:     1.000 speedup


-------------------------   --------------------
FINAL SINGLE POINT ENERGY       -13.037490964050
-------------------------   --------------------


-------------
DIPOLE MOMENT
-------------
                                X             Y             Z
Total Dipole Moment    :      1.17500      -0.36200       0.35300
                        -----------------------------------------
Magnitude (a.u.)       :      1.27917
Magnitude (Debye)      :      3.25139


------------------
CARTESIAN GRADIENT
------------------

   1   B   :    0.007060706    0.039529885   -0.008289046
   2   B   :    0.040010270    0.014928501   -0.038241568
   3   B   :   -0.083321374   -0.018824371   -0.053825438
   4   B   :   -0.013124477    0.144838209   -0.050394653
   5   B   :    0.002788391   -0.177703293    0.076296954
   6   B   :   -0.014737429    0.048960479   -0.035628264
   7   B   :   -0.011943100   -0.034850295    0.009599548
   8   B   :    0.069015664   -0.044805436    0.014266204
   9   B   :   -0.011020019   -0.008551207   -0.054504400
  10   B   :   -0.046675007    0.118264585   -0.007861549
  11   B   :    0.030823096   -0.069088099    0.064592636
  12   B   :    0.031123280   -0.012698958    0.083989576

Difference to translation invariance:
           :   -0.0000000000   -0.0000000000    0.0000000000

Difference to rotation invariance:
           :    0.0000000100   -0.0000000212   -0.0000000286

Norm of the Cartesian gradient     ...    0.3550179048
RMS gradient                       ...    0.0591696508
MAX gradient                       ...    0.1777032930
------------------------------------------------------------------------------
                         ORCA GEOMETRY RELAXATION STEP
------------------------------------------------------------------------------

Reading the OPT-File                    .... done
Getting information on internals        .... done
Copying old internal coords+grads       .... done
Making the new internal coordinates     .... (2022 redundants) done
Validating the new internal coordinates .... (2022 redundants) done
[...]
 total:
 * wall-time:     0 d,  0 h,  0 min,  0.043 sec
 *  cpu-time:     0 d,  0 h,  0 min,  0.043 sec
 * ratio c/w:     0.999 speedup
 SCF:
 * wall-time:     0 d,  0 h,  0 min,  0.029 sec
 *  cpu-time:     0 d,  0 h,  0 min,  0.029 sec
 * ratio c/w:     1.000 speedup


-------------------------   --------------------
FINAL SINGLE POINT ENERGY       -14.267448534440
-------------------------   --------------------


-------------
DIPOLE MOMENT
-------------
                                X             Y             Z
Total Dipole Moment    :     -0.58600       0.97800      -0.16500
                        -----------------------------------------
Magnitude (a.u.)       :      1.15200
Magnitude (Debye)      :      2.92815


------------------
CARTESIAN GRADIENT
------------------

   1   B   :    0.002567368    0.001763005    0.004774704
   2   B   :    0.003476226    0.005547155    0.007789492
   3   B   :   -0.003240207    0.001023295   -0.016013412
   4   B   :   -0.000723710    0.010012176    0.005958826
   5   B   :   -0.003947900    0.002974551    0.003613800
   6   B   :   -0.005406789   -0.004178106   -0.011093501
   7   B   :   -0.003796822   -0.003546590   -0.013954015
   8   B   :    0.004519243    0.003060425    0.007738543
   9   B   :    0.005016165   -0.011236712    0.002039382
  10   B   :    0.005398693    0.014060374   -0.007138229
  11   B   :   -0.001736779   -0.008235655    0.011432279
  12   B   :   -0.002125489   -0.011243917    0.004852132

Difference to translation invariance:
           :   -0.0000000000    0.0000000000   -0.0000000000

Difference to rotation invariance:
           :   -0.0000000067   -0.0000000032    0.0000000028

Norm of the Cartesian gradient     ...    0.0429920541
RMS gradient                       ...    0.0071653424
MAX gradient                       ...    0.0160134124
------------------------------------------------------------------------------
                         ORCA GEOMETRY RELAXATION STEP
------------------------------------------------------------------------------

Reading the OPT-File                    .... done
Getting information on internals        .... done
Copying old internal coords+grads       .... done
Making the new internal coordinates     .... (2022 redundants) done
Validating the new internal coordinates .... (2022 redundants) done
Calculating the B-matrix                .... done
Calculating the G,G- and P matrices     .... done
Transforming gradient to internals      .... done
Projecting the internal gradient        .... done
Number of atoms                         ....  12
Number of internal coordinates          .... 115
Current Energy                          ....   -14.267448534 Eh
Current gradient norm                   ....     0.042992054 Eh/bohr
Maximum allowed component of the step   ....  0.300
Current trust radius                    ....  0.467
Updating the Hessian (BFGS)             .... done
Forming the augmented Hessian           .... done
Diagonalizing the augmented Hessian     .... done
Last element of RFO vector              ....  0.943745519
Lowest eigenvalues of augmented Hessian:
 -0.004749877  0.001526357  0.003444813  0.006375504  0.008676047
Length of the computed step             ....  0.350383269
The final length of the internal step   ....  0.350383269
Converting the step to Cartesian space:
 Initial RMS(Int)=    0.0326734083
Transforming coordinates:
 Iter   0:  RMS(Cart)=    0.0418482737 RMS(Int)=    0.5833213867
 Iter   5:  RMS(Cart)=    0.0002507531 RMS(Int)=    0.0001189548
 Iter  10:  RMS(Cart)=    0.0000068018 RMS(Int)=    0.0000032274
 Iter  15:  RMS(Cart)=    0.0000001844 RMS(Int)=    0.0000000875
done
Storing new coordinates                 .... done
The predicted energy change is          ....    -0.002666506
Previously predicted energy change      ....    -0.004063508
Actually observed energy change         ....    -0.003481239
Ratio of predicted to observed change   ....     0.856707644
New trust radius                        ....     0.700000000

                                .--------------------.
          ----------------------|Geometry convergence|-------------------------
          Item                value                   Tolerance       Converged
          ---------------------------------------------------------------------
          Energy change      -0.0034812385            0.0000010000      NO
          RMS gradient        0.0027232448            0.0000300000      NO
          MAX gradient        0.0103793915            0.0001000000      NO
          RMS step            0.0326734083            0.0006000000      NO
          MAX step            0.1534131193            0.0010000000      NO
          -------------------------------------------------------------------------
          ........................................................
          Max(Bonds)      0.0462      Max(Angles)    8.79
          Max(Dihed)        4.14      Max(Improp)    0.00
          ---------------------------------------------------------------------

The optimization has not yet converged - more geometry cycles are needed


    ---------------------------------------------------------------------------
                         Redundant Internal Coordinates
                            (Angstroem and degrees)

        Definition                    Value    dE/dq     Step     New-Value
    ----------------------------------------------------------------------------
     1. B(B   1,B   0)                2.0614  0.000617  0.0229    2.0843   
     2. B(B   3,B   2)                1.4940 -0.008288  0.0265    1.5204   
     3. B(B   4,B   1)                1.6449  0.000056 -0.0027    1.6423   
     4. B(B   5,B   1)                1.5123 -0.004877  0.0105    1.5228   
     5. B(B   5,B   0)                1.8307 -0.001756 -0.0030    1.8277   
     6. B(B   6,B   1)                1.6693 -0.000195  0.0182    1.6875   
     7. B(B   6,B   0)                1.5713  0.007876 -0.0223    1.5490   
     8. B(B   6,B   4)                1.5435 -0.004157  0.0266    1.5702   
     9. B(B   8,B   4)                1.5237  0.002208  0.0022    1.5259   
    10. B(B   8,B   3)                1.5077 -0.009152  0.0039    1.5116   
    11. B(B   9,B   7)                1.5447  0.008153 -0.0083    1.5363   
    12. B(B   9,B   0)                1.7431  0.003027 -0.0123    1.7308   
    13. B(B  10,B   9)                1.5086 -0.005748  0.0054    1.5140   
    14. B(B  10,B   5)                1.5364  0.006080 -0.0097    1.5267   
    15. B(B  10,B   0)                1.7194 -0.001502  0.0011    1.7205   
    16. B(B  11,B   7)                1.5337  0.010379 -0.0462    1.4874   
    17. B(B  11,B   2)                1.5103  0.006942 -0.0017    1.5085   
    18. A(B   1,B   0,B   6)           52.63 -0.000726    0.27     52.90   
    19. A(B   1,B   0,B  10)           95.38  0.001085   -0.33     95.05   
    20. A(B   5,B   0,B  10)           51.17  0.002486   -0.31     50.86   
    21. A(B   5,B   0,B   9)           99.93  0.000365    0.05     99.98   
    22. A(B   6,B   0,B   9)          144.10  0.001556   -1.84    142.26   
    23. A(B   1,B   0,B   9)          135.10 -0.000047   -0.11    134.99   
    24. A(B   1,B   0,B   5)           45.25 -0.001419   -0.03     45.22   
    25. A(B   5,B   0,B   6)           97.86 -0.002138    0.29     98.15   
    26. A(B   6,B   0,B  10)          146.89  0.000229   -0.49    146.40   
    27. A(B   9,B   0,B  10)           51.65 -0.002197    0.43     52.08   
    28. A(B   0,B   1,B   6)           48.43  0.002435   -1.39     47.04   
    29. A(B   0,B   1,B   5)           59.28 -0.000349   -0.81     58.47   
    30. A(B   5,B   1,B   6)          107.68  0.002092   -2.13    105.55   
    31. A(B   4,B   1,B   5)          146.92  0.000511   -0.30    146.62   
    32. A(B   4,B   1,B   6)           55.51 -0.001476    0.76     56.27   
    33. A(B   0,B   1,B   4)           97.83  0.000822    0.52     98.35   
    34. A(B   3,B   2,B  11)          145.08  0.002684    3.36    148.44   
    35. L(B   2,B   3,B   8,B   4, 1) 155.72  0.009692   -8.79    146.93   
    36. L(B   2,B   3,B   8,B   4, 2) 192.10  0.002783   -5.36    186.74   
    37. A(B   1,B   4,B   6)           63.04  0.000687    0.28     63.32   
    38. A(B   1,B   4,B   8)          122.22 -0.002321   -1.47    120.75   
    39. A(B   6,B   4,B   8)          121.30 -0.000554   -2.58    118.72   
    40. A(B   0,B   5,B  10)           60.67 -0.000988    0.33     61.00   
    41. A(B   0,B   5,B   1)           75.47  0.001768    0.84     76.31   
    42. A(B   1,B   5,B  10)          133.91  0.000817    1.14    135.05   
    43. A(B   1,B   6,B   4)           61.45  0.000789   -1.04     60.40   
    44. A(B   0,B   6,B   4)          128.62 -0.000762    1.96    130.57   
    45. A(B   0,B   6,B   1)           78.94 -0.001709    1.12     80.06   
    46. A(B   9,B   7,B  11)          140.81 -0.002901    2.20    143.01   
    47. A(B   3,B   8,B   4)          130.16 -0.004382    4.80    134.96   
    48. A(B   0,B   9,B  10)           63.36 -0.000368    0.31     63.67   
    49. A(B   0,B   9,B   7)          121.70  0.000287   -0.56    121.15   
    50. A(B   7,B   9,B  10)          150.26  0.000509   -1.61    148.64   
    51. A(B   0,B  10,B   5)           68.16 -0.001498   -0.02     68.14   
    52. A(B   5,B  10,B   9)          128.00  0.001095   -0.73    127.27   
    53. A(B   0,B  10,B   9)           64.98  0.002565   -0.74     64.25   
    54. A(B   2,B  11,B   7)          126.18 -0.006181   -0.22    125.96   
    55. D(B   5,B   1,B   0,B   9)    -49.40  0.002033   -0.29    -49.69   
    56. D(B   4,B   1,B   0,B   9)    105.03  0.002218   -0.55    104.48   
    57. D(B   4,B   1,B   0,B   6)    -27.62  0.000480    1.84    -25.78   
    58. D(B   4,B   1,B   0,B  10)    143.01 -0.000076   -0.15    142.86   
    59. D(B   5,B   1,B   0,B  10)    -11.42 -0.000261    0.11    -11.31   
    60. D(B   4,B   1,B   0,B   5)    154.44  0.000185   -0.26    154.17   
    61. D(B   5,B   1,B   0,B   6)    177.94  0.000295    2.10    180.05   
    62. D(B   8,B   4,B   1,B   6)   -111.61 -0.000342    2.86   -108.75   
    63. D(B   8,B   4,B   1,B   0)    -86.73  0.000705    0.34    -86.39   
    64. D(B   8,B   4,B   1,B   5)    -43.91  0.000881    0.02    -43.89   
    65. D(B   6,B   4,B   1,B   5)     67.70  0.001222   -2.84     64.86   
    66. D(B   6,B   4,B   1,B   0)     24.89  0.001047   -2.53     22.36   
    67. D(B   1,B   5,B   0,B  10)    165.34  0.000212    0.09    165.42   
    68. D(B   1,B   5,B   0,B   9)    147.03  0.001058   -0.21    146.82   
    69. D(B   1,B   5,B   0,B   6)     -1.65  0.000261    1.71      0.06   
    70. D(B  10,B   5,B   1,B   4)    -33.72 -0.000544    0.17    -33.54   
    71. D(B   0,B   5,B   1,B   6)      1.61 -0.000152   -1.69     -0.07   
    72. D(B  10,B   5,B   1,B   6)     19.45 -0.000338   -1.41     18.04   
    73. D(B   0,B   5,B   1,B   4)    -51.55 -0.000358   -0.10    -51.65   
    74. D(B  10,B   5,B   1,B   0)     17.84 -0.000186    0.28     18.11   
    75. D(B  10,B   5,B   0,B   9)    -18.31  0.000846   -0.30    -18.61   
    76. D(B  10,B   5,B   0,B   6)   -166.99  0.000049    1.62   -165.37   
    77. D(B  10,B   5,B   0,B   1)   -165.34 -0.000212   -0.09   -165.42   
    78. D(B   0,B   6,B   1,B   4)    146.13  0.000011    2.87    149.00   
    79. D(B   4,B   6,B   0,B   5)     40.26 -0.000413   -4.14     36.13   
    80. D(B   4,B   6,B   0,B   1)     38.79 -0.000157   -2.58     36.21   
    81. D(B   1,B   6,B   0,B  10)    -17.26 -0.001125   -3.62    -20.87   
    82. D(B   1,B   6,B   0,B   9)   -117.70  0.001136   -0.27   -117.97   
    83. D(B   1,B   6,B   0,B   5)      1.47 -0.000255   -1.56     -0.08   
    84. D(B   0,B   6,B   1,B   5)     -1.86  0.000251    1.90      0.04   
    85. D(B   4,B   6,B   0,B   9)    -78.91  0.000979   -2.85    -81.76   
    86. D(B   1,B   6,B   4,B   8)    113.01 -0.002332   -1.19    111.82   
    87. D(B   0,B   6,B   4,B   8)     68.59 -0.001392    1.13     69.72   
    88. D(B   0,B   6,B   4,B   1)    -44.42  0.000940    2.32    -42.11   
    89. D(B   4,B   6,B   1,B   5)   -147.99  0.000240   -0.97   -148.96   
    90. D(B   4,B   6,B   1,B   0)   -146.13 -0.000011   -2.87   -149.00   
    91. D(B   3,B   8,B   4,B   6)    -12.40  0.000917    0.83    -11.57   
    92. D(B   3,B   8,B   4,B   1)     63.49  0.000428   -1.33     62.15   
    93. D(B   4,B   8,B   2,B  11)     -8.29 -0.000800    1.38     -6.90   
    94. D(B   0,B   9,B   7,B  11)     40.76 -0.001456   -0.97     39.79   
    95. D(B  10,B   9,B   0,B   5)     18.18  0.000389    0.07     18.25   
    96. D(B  10,B   9,B   0,B   1)     51.37 -0.001629    0.22     51.59   
    97. D(B   7,B   9,B   0,B  10)   -146.29 -0.000472    1.79   -144.51   
    98. D(B   7,B   9,B   0,B   6)     -9.53 -0.002168    0.66     -8.87   
    99. D(B   7,B   9,B   0,B   5)   -128.11 -0.000084    1.86   -126.26   
   100. D(B  10,B   9,B   7,B  11)    -50.32 -0.001514    0.40    -49.92   
   101. D(B   7,B   9,B   0,B   1)    -94.92 -0.002101    2.00    -92.92   
   102. D(B   5,B  10,B   9,B   0)    -27.69  0.000329    0.16    -27.53   
   103. D(B   0,B  10,B   9,B   7)    107.90 -0.000019   -0.65    107.24   
   104. D(B   9,B  10,B   5,B   1)      7.09  0.000439   -0.67      6.43   
   105. D(B   9,B  10,B   5,B   0)     26.98  0.000596   -0.33     26.64   
   106. D(B   0,B  10,B   5,B   1)    -19.88 -0.000157   -0.33    -20.22   
   107. D(B   9,B  10,B   0,B   6)   -132.67  0.000006    3.06   -129.61   
   108. D(B   9,B  10,B   0,B   5)   -156.77 -0.000378    0.24   -156.53   
   109. D(B   9,B  10,B   0,B   1)   -146.36 -0.000767    0.15   -146.21   
   110. D(B   5,B  10,B   0,B   9)    156.77  0.000378   -0.24    156.53   
   111. D(B   5,B  10,B   0,B   6)     24.10  0.000384    2.82     26.92   
   112. D(B   5,B  10,B   9,B   7)     80.21  0.000310   -0.49     79.71   
   113. D(B   5,B  10,B   0,B   1)     10.40 -0.000388   -0.09     10.32   
   114. D(B   2,B  11,B   7,B   9)     -0.85  0.000871    2.58      1.73   
   115. D(B   7,B  11,B   2,B   3)     -9.55 -0.000481   -0.81    -10.36   
    ----------------------------------------------------------------------------

Geometry step timings:
Preparation and reading OPT file:      0.000 s ( 0.683 %)
Internal coordinates            :      0.000 s ( 0.988 %)
B/P matrices and projection     :      0.002 s (33.861 %)
Hessian update/contruction      :      0.001 s (19.087 %)
Making the step                 :      0.001 s (20.884 %)
Converting the step to Cartesian:      0.000 s ( 5.428 %)
Storing new data                :      0.000 s ( 1.276 %)
Checking convergence            :      0.000 s ( 1.546 %)
Final printing                  :      0.001 s (16.193 %)
Total time                      :      0.006 s

Time for energy+gradient        :      0.064 s
Time for complete geometry iter :      0.071 s




    ----------------------------------------------------------------------------
                                  WARNING !!!
       The optimization did not converge but reached the maximum number of
       optimization cycles.
       Please check your results very carefully.
    ----------------------------------------------------------------------------



--------------------------------
SUGGESTED CITATIONS FOR THIS RUN
--------------------------------

Below you find a list of papers that are relevant to this ORCA run
We neither can nor want to force you to cite these papers, but we appreciate if you do
You receive ORCA, which is the product of decades of hard work by many enthusiastic individuals, for free
The only thing we kindly ask in return is that you cite our papers,
We deeply appreciate it, if you show your appreciation for ORCA by not just citing the generic ORCA reference.

Please note that relegating all ORCA citations to the supporting information does *not* help us.
SI sections are not indexed - citations you put there will not count into any citation statistics
But we need these citations in order to attract the funding resources that allow us to do what we are doing

Therefore, if you are a happy ORCA user, please consider citing a few of the papers listed below in the main body of your paper

In addition to the list printed below, the program has created the file random_d2.10_008_m1.bibtex that contains the list in bibtex format
You can import this file easily into all common literature databanks and citation aid programs

It goes without saying that in many instances, there are alternative algorithms to achieve similar
results as the ones you have gotten from ORCA. It is, of course, also the case that in some instances
ORCA just re-implements algorithms worked out by others. We are fully aware of that and we are also
fully appreciative of our colleagues work. Hence this citation list should not be read as indicating
that the listed papers, which are focused on our own work, are the only ones worth citing. It simply
meant to make it easier for users to cite ORCA specific papers. It is not a substitute for doing your
own literature research and citing the relevant literature in a scientifically appropriate manner.

List of essential papers. We consider these as the minimum necessary citations

  1. Bannwarth, C.; Ehlert, S.; Grimme, S.
     GFN2-xTB—An Accurate and Broadly Parametrized Self-Consistent Tight-Binding Quantum Chemical Method with Multipole Electrostatics and Density-Dependent Dispersion Contributions
     J. Chem. Theory Comput. 2019 15(3), 1652-1671
     doi.org/10.1021/acs.jctc.8b01176
  2. Neese, F.
     Software update: the ORCA program system, version 6.0
     WIRES Comput. Molec. Sci. 2025 15(1), e70019
     doi.org/10.1002/wcms.70019

List of papers to cite with high priority. The work reported in these papers was absolutely
necessary for this run to complete.
Our perspective: the developers of density functionals and basis sets usually get cited in chemistry papers
Good! But without the algorithms to do something with them, the functionals or basis sets would not do anything.
Hence, in our opinion, the algorithm design and method developments papers are equally worthy of getting cited

  1. Bannwarth, C.; Caldeweyher, E.; Ehlert, S.; Hansen, A.; Pracht, P.; Seibert, J.; Spicher, S.; Grimme, S.
     Extended tight-binding quantum chemistry methods
     WIRES Comput. Molec. Sci. 2020 11(2), e1493
     doi.org/10.1002/wcms.1493

List of suggested additional citations. These are papers that are important in the 'surrounding' of 
of this run, or papers that preceded the highly important papers. If you like your results we are grateful for a citation.

  1. Neese, F.
     The ORCA program system
     WIRES Comput. Molec. Sci. 2012 2(1), 73-78
     doi.org/10.1002/wcms.81
  2. Neese, F.
     Software update: the ORCA program system, version 4.0
     WIRES Comput. Molec. Sci. 2018 8(1), 1-6
     doi.org/10.1002/wcms.1327
  3. Neese, F.; Wennmohs, F.; Becker, U.; Riplinger, C.
     The ORCA quantum chemistry program package
     J. Chem. Phys. 2020 152(22), 224108
     doi.org/10.1063/5.0004608
  4. Neese, F.
     Software update: The ORCA program system—Version 5.0
     WIRES Comput. Molec. Sci. 2022 12(1), e1606
     doi.org/10.1002/wcms.1606

List of optional additional citations

  1. Neese, F.
     Approximate second-order SCF convergence for spin unrestricted wavefunctions
     Chem. Phys. Lett. 2000 325(1-3), 93-98
     doi.org/10.1016/s0009-2614(00)00662-x

Timings for individual modules:

Sum of individual times          ...        5.158 sec (=   0.086 min)
Geometry relaxation              ...        0.397 sec (=   0.007 min)   7.7 %
XTB module                       ...        4.761 sec (=   0.079 min)  92.3 %
                             ****ORCA TERMINATED NORMALLY****
TOTAL RUN TIME: 0 days 0 hours 0 minutes 5 seconds 657 msec
