
                                 *****************
                                 * O   R   C   A *
                                 *****************

                                            #,                                       
                                            ###                                      
                                            ####                                     
                                            #####                                    
                                            ######                                   
                                           ########,                                 
                                     ,,################,,,,,                         
                               ,,#################################,,                 
                          ,,##########################################,,             
                       ,#########################################, ''#####,          
                    ,#############################################,,   '####,        
                  ,##################################################,,,,####,       
                ,###########''''           ''''###############################       
              ,#####''   ,,,,##########,,,,          '''####'''          '####       
            ,##' ,,,,###########################,,,                        '##       
           ' ,,###''''                  '''############,,,                           
         ,,##''                                '''############,,,,        ,,,,,,###''
      ,#''                                            '''#######################'''  
     '                                                          ''''####''''         
             ,#######,   #######,   ,#######,      ##                                
            ,#'     '#,  ##    ##  ,#'     '#,    #''#        ,####,    ,#,          
            ##       ##  ##   ,#'  ##            #'  '#       #'       ,# #          
            ##       ##  #######   ##           ,######,      #####,      #          
            '#,     ,#'  ##    ##  '#,     ,#' ,#      #,     #,   #      #          
             '#######'   ##     ##  '#######'  #'      '#     '####' #    #          



                #########################################################
                #                        -***-                          #
                #          Department of theory and spectroscopy        #
                #                                                       #
                #                      Frank Neese                      #
                #                                                       #
                #     Directorship, Architecture, Infrastructure        #
                #                    SHARK, DRIVERS                     #
                #        Core code/Algorithms in most modules           #
                #                                                       #
                #        Max Planck Institute fuer Kohlenforschung      #
                #                Kaiser Wilhelm Platz 1                 #
                #                 D-45470 Muelheim/Ruhr                 #
                #                      Germany                          #
                #                                                       #
                #                  All rights reserved                  #
                #                        -***-                          #
                #########################################################


                         Program Version 6.1.1  -  RELEASE   -
                                (GIT: $487d211c$)
                          ($2025-11-21 10:33:24 +0100$)
                                                                         
                                  - NO-DMRG VERSION -                    
                                                                         


 With contributions from (in alphabetic order):
[Max-Planck-Institut fuer Kohlenforschung]                               
  Daniel Aravena         : Magnetic Suceptibility                        
  Michael Atanasov       : Ab Initio Ligand Field Theory (pilot matlab implementation)
  Alexander A. Auer      : GIAO ZORA, VPT2 properties, NMR spectrum      
  Ute Becker             : All parallelization in ORCA, NUMFREQ, NUMCALC 
  Giovanni Bistoni       : ED, misc. LED, open-shell LED, HFLD           
  Dmytro Bykov           : pre 5.0 version of the SCF Hessian            
  Marcos Casanova-Páez   : Triplet and SCS-CIS(D). UHF-(DLPNO)-IP/EA/STEOM-CCSD. UHF-CVS-IP/STEOM-CCSD   
  Vijay G. Chilkuri      : MRCI spin determinant printing, contributions to CSF-ICE 
  Pauline Colinet        : FMM embedding                                 
  Dipayan Datta          : RHF DLPNO-CCSD density                        
  Achintya Kumar Dutta   : EOM-CC, STEOM-CC                              
  Nicolas Foglia         : Exact transition moments, OPA infrastructure, MCD improvements    
  Dmitry Ganyushin       : Spin-Orbit,Spin-Spin,Magnetic field MRCI      
  Miquel Garcia-Rates    : C-PCM and meta-GGA Hessian, CCSD/C-PCM, Gaussian charge scheme 
  Tiago L. C. Gouveia    : GS-ROHF, GS-ROCIS                             
  Yang Guo               : DLPNO-NEVPT2, F12-NEVPT2, CIM, IAO-localization        
  Andreas Hansen         : Spin unrestricted coupled pair/coupled cluster methods 
  Ingolf Harden          : AUTO-CI MPn and infrastructure                
  Benjamin Helmich-Paris : MC-RPA, TRAH-(SCF,CASSCF), AVAS, COSX integrals, SCF dyn. polar., MC-PDFT, srDFT 
  Lee Huntington         : MR-EOM, pCC                                   
  Robert Izsak           : Overlap fitted RIJCOSX, COSX-SCS-MP3, EOM     
  Riya Kayal             : Wick's Theorem for AUTO-CI, AUTO-CI UHF-CCSDT 
  Emily Kempfer          : AUTO-CI RHF CISDT and CCSDT, approximate NEVPT4
  Christian Kollmar      : KDIIS, OOCD, Brueckner-CCSD(T), CCSD density, CASPT2, CASPT2-K, improved NEVPT2 
  Axel Koslowski         : Symmetry handling                             
  Simone Kossmann        : meta-GGA functionals, TD-DFT gradient, OOMP2, (MP2 Hessian; deprecated post 5.0) 
  Lucas Lang             : DCDCAS, Hyperfine gauge corrections, ICE-SOC+SSC
  Marvin Lechner         : AUTO-CI (C++ implementation), FIC-MRCC        
  Spencer Leger          : CASSCF response                               
  Dagmar Lenk            : GEPOL surface, SMD, ORCA-2-JSON               
  Dimitrios Liakos       : Extrapolation schemes; Compound Job, Property file
  Dimitrios Manganas     : Further ROCIS development; embedding schemes. LFT, Crystal Embedding 
  Dimitrios Pantazis     : SARC Basis sets                               
  Anastasios Papadopoulos: AUTO-CI, single reference methods and gradients 
  Taras Petrenko         : pre 6.0 DFT Hessian and TD-DFT gradient,  ECA, NRVS 
  Petra Pikulova         : Analytic Raman intensities                    
  Peter Pinski           : DLPNO-MP2, DLPNO-MP2 Gradient                 
  Shashank Vittal Rao    : ES-AILFT, MagRelax                            
  Christoph Reimann      : Effective Core Potentials                     
  Marius Retegan         : Local ZFS, SOC                                
  Christoph Riplinger    : Optimizer, TS searches, QM/MM, DLPNO-CCSD(T), (RO)-DLPNO pert. Triples 
  Michael Roemelt        : Original ROCIS implementation, recursive CI coupling coefficients
  Masaaki Saitow         : Open-shell DLPNO-CCSD energy and density      
  Barbara Sandhoefer     : DKH picture change effects                    
  Yorick L. A. Schmerwitz: GMF and freeze-and-release deltaSCF, NEB S-IDPP initial path                    
  Kantharuban Sivalingam : CASSCF convergence/infrastructure, NEVPT2, NEVPT3, NEVPT4(SD), FIC-MRCI and CEPA variants
  Bernardo de Souza      : ESD, SOC TD-DFT                               
  Georgi L. Stoychev     : AutoAux, RI-MP2 NMR, DLPNO-MP2 response, X2C  
  Van Anh Tran           : RI-MP2 g-tensors                              
  Willem Van den Heuvel  : Paramagnetic NMR                              
  Zikuan Wang            : NOTCH, Electric field optimization            
  Frank Wennmohs         : Technical directorship and infrastructure     
  Hang Xu                : AUTO-CI-Response properties                   
                                                                         
[FACCTs GmbH]                                                            
  Markus Bursch, Nicolas Foglia, Miquel Garcia-Rates, Ingolf Harden, Hagen Neugebauer, Anastasios Papadopoulos, 
  Christoph Riplinger, Bernardo de Souza, Georgi L. Stoychev                                                    
                                                                 
  APM, various basis sets, CI-OPT, improved COSX, DLPNO-Multilevel,           
  DOCKER, DRACO, updates on ESD, Fragmentator, GOAT, IRC, LR-CPCM, L-BFGS, MBIS, meta-GGA TD-DFT gradient, ML-optimized integration grids, 
  MM, NACMEs, nearIR, NEB, NEB-TS, NL-DFT gradient (VV10), 2- and 3-layer-ONIOM, interface openCOSMO-RS, QMMM,   
  Crystal-QMMM, RESP, rigid body optimization, SF, symmetry and pop. for TD-DFT, various functionals, SOLVATOR                                   
                                                                         
[Other institutions]                                                     
  V. Asgeirsson          : NEB                                           
  Christoph Bannwarth    : sTDA-DFT, sTD-DFT, PBEh-3c, B97-3c, D3        
  Giovanni Bistoni       : ETS/NOCV, ADLD/ADEX, COVALED                  
  Martin Brehm           : Molecular dynamics                            
  Ronald Cardenas        : ETS/NOCV                                      
  Martina Colucci        : COVALED                                       
  Sebastian Ehlert       : rSCAN, r2SCAN, r2SCAN-3c, D4, dhf basis sets  
  Marvin Friede          : D4 for Fr, Ra, Ac-Lr                          
  Lars Goerigk           : TD-DFT with DH, B97 family of functionals     
  Stefan Grimme          : VdW corrections, initial TS optimization, DFT functionals, gCP, sTDA/sTD-DF 
  Waldemar Hujo          : DFT-NL                                        
  H. Jonsson             : NEB                                           
  Holger Kruse           : gCP                                           
  Marcel Mueller         : wB97X-3c, vDZP basis set                      
  Hagen Neugebauer       : wr2SCAN, Native XTB                           
  Gianluca Regni         : ADLD/ADEX                                     
  Tobias Risthaus        : pre 6.0 range-separated hybrid DFT and stability analysis
  Lukas Wittmann         : regularized MP2, r2SCAN double-hybrids, wr2SCAN        
                                                                         
We gratefully acknowledge several colleagues who have allowed us to      
interface, adapt or use parts of their codes:                            
  Ed Valeev, F. Pavosevic, A. Kumar             : LibInt (2-el integral package), F12 methods 
  Garnet Chan, S. Sharma, J. Yang, R. Olivares  : DMRG                   
  Ulf Ekstrom                                   : XCFun DFT Library      
  Mihaly Kallay                                 : mrcc  (arbitrary order and MRCC methods)
  Frank Weinhold                                : gennbo (NPA and NBO analysis)           
  Simon Mueller                                 : openCOSMO-RS                            
  Christopher J. Cramer and Donald G. Truhlar   : smd solvation model                     
  S Lehtola, MJT Oliveira, MAL Marques          : LibXC Library                           
  Liviu Ungur et al                             : ANISO software                          


 Your calculation uses the libint2 library for the computation of 2-el integrals
 For citations please refer to: http://libint.valeyev.net

 Your ORCA version has been built with support for libXC version: 7.0.0
 For citations please refer to: https://libxc.gitlab.io

 This ORCA versions uses:
   CBLAS   interface :  Fast vector & matrix operations
   LAPACKE interface :  Fast linear algebra routines
   SCALAPACK package :  Parallel linear algebra routines
   Shared memory     :  Shared parallel matrices
   BLAS/LAPACK       :  OpenBLAS 0.3.29  USE64BITINT DYNAMIC_ARCH NO_AFFINITY Zen SINGLE_THREADED
        Core in use  :  Zen
   Copyright (c) 2011-2014, The OpenBLAS Project


  ***********************************
  * Starting time: Fri Apr 17 12:14:06 2026
  * Host name:     vmi3233575
  * Process ID:    331460
  * Working dir.:  /root/orca_b12_vps_pack/jobs/01_xtb/mult_1
  ***********************************

NOTE: MaxCore=500 MB was set to SCF,MP2,MDCI,CIPSI,MRCI,RASCI and CIS
      => If you want to overwrite this, your respective input block should be placed after the MaxCore statement


***************************************
The coordinates will be read from file: ../../../starts/random_d1.50_009.xyz
***************************************


Your calculation utilizes the semiempirical GFN2-xTB method
Please cite in your paper:
Bannwarth, C.; Ehlert S.; Grimme, S. J. Chem. Theory Comput. 2019, 15, 1652.
   

================================================================================

================================================================================
                                        WARNINGS
                       Please study these warnings very carefully!
================================================================================


WARNING: Geometry Optimization
  ===> : Switching off AutoStart
         For restart on a previous wavefunction, please use MOREAD

WARNING: Found dipole moment calculation with XTB calculation
  ===> : Switching off dipole moment calculation

Environment variable XTBEXE for xtb has been set!

================================================================================
                                       INPUT FILE
================================================================================
NAME = random_d1.50_009_m1.inp
|  1> ! GFN2-xTB TightSCF TightOpt
|  2> 
|  3> %pal
|  4>   nprocs 1
|  5> end
|  6> 
|  7> %maxcore 500
|  8> 
|  9> * xyzfile 0 1 ../../../starts/random_d1.50_009.xyz
| 10> 
| 11>                          ****END OF INPUT****
================================================================================

                       *****************************
                       * Geometry Optimization Run *
                       *****************************

Geometry optimization settings:
Update method            Update   .... BFGS
Choice of coordinates    CoordSys .... (2022) Redundant Internals
Initial Hessian          InHess   .... Almloef's Model
Max. no of cycles        MaxIter  .... 50

Convergence Tolerances:
Energy Change            TolE     ....  1.0000e-06 Eh
Max. Gradient            TolMAXG  ....  1.0000e-04 Eh/bohr
RMS Gradient             TolRMSG  ....  3.0000e-05 Eh/bohr
Max. Displacement        TolMAXD  ....  1.0000e-03 bohr
RMS Displacement         TolRMSD  ....  6.0000e-04 bohr
Strict Convergence                .... False

------------------------------------------------------------------------------
                        ORCA OPTIMIZATION COORDINATE SETUP
------------------------------------------------------------------------------

The optimization will be done in redundant internal coordinates (2022)
Making redundant internal coordinates   ...  (2022 redundants) done
Evaluating the initial hessian          ...  (Almloef) done
Evaluating the coordinates              ...  done
Calculating the B-matrix                .... done
Calculating the G-matrix                .... done
The number of degrees of freedom        ....   95

    -----------------------------------------------------------------
                    Redundant Internal Coordinates


    -----------------------------------------------------------------
         Definition                    Initial Value    Approx d2E/dq
    -----------------------------------------------------------------
      1. B(B   1,B   0)                  2.0004         0.089023   
      2. B(B   2,B   1)                  1.6196         0.360646   
      3. B(B   4,B   0)                  1.9236         0.118058   
      4. B(B   4,B   1)                  1.9592         0.103577   
      5. B(B   5,B   4)                  2.0725         0.068321   
      6. B(B   6,B   4)                  1.5649         0.440922   
      7. B(B   7,B   4)                  1.9411         0.110690   
      8. B(B   7,B   5)                  2.0556         0.072681   
      9. B(B   8,B   6)                  1.5647         0.441168   
     10. B(B   9,B   2)                  1.4694         0.626101   
     11. B(B   9,B   1)                  1.5088         0.541707   
     12. B(B  10,B   5)                  1.8982         0.129567   
     13. B(B  10,B   3)                  1.2938         1.193378   
     14. B(B  11,B   7)                  1.7362         0.234982   
     15. B(B  11,B   4)                  1.5997         0.387916   
     16. A(B   1,B   0,B   4)           59.8675         0.248430   
     17. A(B   4,B   1,B   9)           83.9952         0.321924   
     18. A(B   0,B   1,B   4)           58.1184         0.243777   
     19. A(B   0,B   1,B   9)          102.7289         0.314076   
     20. A(B   0,B   1,B   2)          133.4901         0.294277   
     21. A(B   2,B   1,B   9)           55.8947         0.397922   
     22. A(B   2,B   1,B   4)           77.5268         0.301434   
     23. A(B   1,B   2,B   9)           58.2353         0.408213   
     24. A(B   0,B   4,B  11)           78.9426         0.311461   
     25. A(B   0,B   4,B   5)          101.8316         0.239160   
     26. A(B   6,B   4,B  11)           85.5010         0.388763   
     27. A(B   5,B   4,B   7)           61.5134         0.236985   
     28. A(B   6,B   4,B   7)           76.5562         0.314688   
     29. A(B   7,B   4,B  11)           57.7646         0.308239   
     30. A(B   1,B   4,B   7)          135.5633         0.251600   
     31. A(B   0,B   4,B   7)          104.3108         0.256488   
     32. A(B   5,B   4,B   6)           95.6788         0.291338   
     33. A(B   5,B   4,B  11)          117.0705         0.285557   
     34. A(B   1,B   4,B   6)          130.7618         0.311321   
     35. A(B   0,B   4,B   6)          160.4906         0.318004   
     36. A(B   1,B   4,B   5)           79.3700         0.234777   
     37. A(B   0,B   4,B   1)           62.0141         0.253989   
     38. A(B   1,B   4,B  11)          140.4219         0.304968   
     39. A(B   4,B   5,B   7)           56.0956         0.223546   
     40. A(B   7,B   5,B  10)           77.8651         0.244517   
     41. A(B   4,B   5,B  10)           77.8056         0.242354   
     42. A(B   4,B   6,B   8)          120.6673         0.397619   
     43. A(B   4,B   7,B  11)           51.2042         0.284724   
     44. A(B   4,B   7,B   5)           62.3909         0.239072   
     45. A(B   5,B   7,B  11)          111.6368         0.266949   
     46. A(B   1,B   9,B   2)           65.8699         0.439002   
     47. A(B   3,B  10,B   5)          109.9163         0.381994   
     48. A(B   4,B  11,B   7)           71.0312         0.348965   
     49. D(B   9,B   1,B   0,B   4)    -74.5258         0.010000   
     50. D(B   2,B   1,B   0,B   4)    -19.8399         0.010000   
     51. D(B   9,B   2,B   1,B   0)    -74.0017         0.010000   
     52. D(B   9,B   2,B   1,B   4)    -91.1689         0.010000   
     53. D(B   6,B   4,B   1,B   0)   -162.0223         0.010000   
     54. D(B   7,B   4,B   0,B   1)   -134.3400         0.010000   
     55. D(B   6,B   4,B   0,B   1)    135.5718         0.010000   
     56. D(B   5,B   4,B   0,B   1)    -71.0498         0.010000   
     57. D(B   5,B   4,B   1,B   2)    -84.9747         0.010000   
     58. D(B   0,B   4,B   1,B   9)    109.0470         0.010000   
     59. D(B   6,B   4,B   1,B   2)      3.3712         0.010000   
     60. D(B   5,B   4,B   1,B   9)   -141.3212         0.010000   
     61. D(B  11,B   4,B   0,B   1)    173.3035         0.010000   
     62. D(B   6,B   4,B   1,B   9)    -52.9753         0.010000   
     63. D(B   5,B   4,B   1,B   0)    109.6319         0.010000   
     64. D(B   0,B   4,B   1,B   2)    165.3934         0.010000   
     65. D(B  10,B   5,B   4,B   1)    -74.7282         0.010000   
     66. D(B  10,B   5,B   4,B   0)    -16.5399         0.010000   
     67. D(B   7,B   5,B   4,B  11)    -16.4889         0.010000   
     68. D(B   7,B   5,B   4,B   1)   -158.1888         0.010000   
     69. D(B   7,B   5,B   4,B   0)   -100.0005         0.010000   
     70. D(B  10,B   5,B   4,B   6)    154.8109         0.010000   
     71. D(B   7,B   5,B   4,B   6)     71.3503         0.010000   
     72. D(B   8,B   6,B   4,B  11)    109.3998         0.010676   
     73. D(B   8,B   6,B   4,B   7)     51.4941         0.010676   
     74. D(B   8,B   6,B   4,B   5)     -7.4029         0.010676   
     75. D(B   8,B   6,B   4,B   1)    -88.2526         0.010676   
     76. D(B   8,B   6,B   4,B   0)    146.4461         0.010676   
     77. D(B   5,B   7,B   4,B   6)   -104.2096         0.010000   
     78. D(B   5,B   7,B   4,B   1)     31.4387         0.010000   
     79. D(B   5,B   7,B   4,B   0)     95.8728         0.010000   
     80. D(B  11,B   7,B   5,B  10)    -68.8412         0.010000   
     81. D(B  11,B   7,B   5,B   4)     14.5085         0.010000   
     82. D(B   4,B   7,B   5,B  10)    -83.3498         0.010000   
     83. D(B  11,B   7,B   4,B   5)   -162.6151         0.010000   
     84. D(B  11,B   7,B   4,B   1)   -131.1764         0.010000   
     85. D(B  11,B   7,B   4,B   0)    -66.7423         0.010000   
     86. D(B   5,B   7,B   4,B  11)    162.6151         0.010000   
     87. D(B   2,B   9,B   1,B   4)     78.9858         0.013685   
     88. D(B   2,B   9,B   1,B   0)    134.3595         0.013685   
     89. D(B   3,B  10,B   5,B   7)    -17.6144         0.010000   
     90. D(B   3,B  10,B   5,B   4)    -75.1170         0.010000   
     91. D(B   4,B  11,B   7,B   5)    -16.5491         0.010000   
     92. D(B   7,B  11,B   4,B   6)    -76.9331         0.010000   
     93. D(B   7,B  11,B   4,B   5)     17.1530         0.010000   
     94. D(B   7,B  11,B   4,B   1)    124.1978         0.010000   
     95. D(B   7,B  11,B   4,B   0)    114.8967         0.010000   
    -----------------------------------------------------------------

Number of atoms                         .... 12
Number of degrees of freedom            .... 95


         *************************************************************
         *                GEOMETRY OPTIMIZATION CYCLE   1            *
         *************************************************************
---------------------------------
CARTESIAN COORDINATES (ANGSTROEM)
---------------------------------
  B    -0.312084   -0.881201   -1.674549
  B     1.068193    0.543915   -1.418561
  B     1.112250    1.909699   -0.549218
  B    -0.084175   -2.504320    0.113193
  B    -0.397803    0.282589   -0.145377
  B     1.210381   -0.378454    0.982387
  B    -0.977749    1.233084    0.954202
  B    -0.741495   -0.910363    1.346822
  B    -0.378581    1.240475    2.399650
  B     0.318241    1.802029   -1.780960
  B     0.954834   -1.814871   -0.232007
  B    -1.772012   -0.522581    0.004419

----------------------------
CARTESIAN COORDINATES (A.U.)
----------------------------
  NO LB    ZA    FRAG    MASS        X           Y           Z
   0 B   5.0000    0    10.810   -0.589754   -1.665229   -3.164438
   1 B   5.0000    0    10.810    2.018591    1.027850   -2.680692
   2 B   5.0000    0    10.810    2.101849    3.608808   -1.037872
   3 B   5.0000    0    10.810   -0.159068   -4.732479    0.213903
   4 B   5.0000    0    10.810   -0.751739    0.534016   -0.274723
   5 B   5.0000    0    10.810    2.287289   -0.715174    1.856441
   6 B   5.0000    0    10.810   -1.847679    2.330191    1.803180
   7 B   5.0000    0    10.810   -1.401222   -1.720338    2.545125
   8 B   5.0000    0    10.810   -0.715414    2.344157    4.534682
   9 B   5.0000    0    10.810    0.601389    3.405341   -3.365527
  10 B   5.0000    0    10.810    1.804374   -3.429609   -0.438430
  11 B   5.0000    0    10.810   -3.348617   -0.987534    0.008351

      -----------------------------------------------------------      
     |                   =====================                   |     
     |                           x T B                           |     
     |                   =====================                   |     
     |                         S. Grimme                         |     
     |          Mulliken Center for Theoretical Chemistry        |     
     |                    University of Bonn                     |     
      -----------------------------------------------------------      

   * xtb version 6.6.1 (unknown) compiled by 'builduser@buildhost' on 2023-08-07

   xtb is free software: you can redistribute it and/or modify it under
   the terms of the GNU Lesser General Public License as published by
   the Free Software Foundation, either version 3 of the License, or
   (at your option) any later version.
   
   xtb is distributed in the hope that it will be useful,
   but WITHOUT ANY WARRANTY; without even the implied warranty of
   MERCHANTABILITY or FITNESS FOR A PARTICULAR PURPOSE.  See the
   GNU Lesser General Public License for more details.
   
   Cite this work as:
   * C. Bannwarth, E. Caldeweyher, S. Ehlert, A. Hansen, P. Pracht,
     J. Seibert, S. Spicher, S. Grimme, WIREs Comput. Mol. Sci., 2020, 11,
     e01493. DOI: 10.1002/wcms.1493
   
   for GFN2-xTB:
   * C. Bannwarth, S. Ehlert and S. Grimme., J. Chem. Theory Comput., 2019,
     15, 1652-1671. DOI: 10.1021/acs.jctc.8b01176
   for GFN1-xTB:
   * S. Grimme, C. Bannwarth, P. Shushkov, J. Chem. Theory Comput., 2017,
     13, 1989-2009. DOI: 10.1021/acs.jctc.7b00118
   for GFN0-xTB:
   * P. Pracht, E. Caldeweyher, S. Ehlert, S. Grimme, ChemRxiv, 2019, preprint.
     DOI: 10.26434/chemrxiv.8326202.v1
   for GFN-FF:
   * S. Spicher and S. Grimme, Angew. Chem. Int. Ed., 2020, 59, 15665-15673.
     DOI: 10.1002/anie.202004239
   
   for ALPB and GBSA implicit solvation:
   * S. Ehlert, M. Stahn, S. Spicher, S. Grimme, J. Chem. Theory Comput.,
     2021, 17, 4250-4261. DOI: 10.1021/acs.jctc.1c00471
   
   for DFT-D4:
   * E. Caldeweyher, C. Bannwarth and S. Grimme, J. Chem. Phys., 2017,
     147, 034112. DOI: 10.1063/1.4993215
   * E. Caldeweyher, S. Ehlert, A. Hansen, H. Neugebauer, S. Spicher,
     C. Bannwarth and S. Grimme, J. Chem. Phys., 2019, 150, 154122.
     DOI: 10.1063/1.5090222
   * E. Caldeweyher, J.-M. Mewes, S. Ehlert and S. Grimme, Phys. Chem. Chem. Phys.
     2020, 22, 8499-8512. DOI: 10.1039/D0CP00502A
   
   for sTDA-xTB:
   * S. Grimme and C. Bannwarth, J. Chem. Phys., 2016, 145, 054103.
     DOI: 10.1063/1.4959605
   
   in the mass-spec context:
   * V. Asgeirsson, C. Bauer and S. Grimme, Chem. Sci., 2017, 8, 4879.
     DOI: 10.1039/c7sc00601b
   * J. Koopman and S. Grimme, ACS Omega 2019, 4, 12, 15120-15133.
     DOI: 10.1021/acsomega.9b02011
   
   for metadynamics refer to:
   * S. Grimme, J. Chem. Theory Comput., 2019, 155, 2847-2862
     DOI: 10.1021/acs.jctc.9b00143
   
   for SPH calculations refer to:
   * S. Spicher and S. Grimme, J. Chem. Theory Comput., 2021, 17, 1701-1714
     DOI: 10.1021/acs.jctc.0c01306
   
   with help from (in alphabetical order)
   P. Atkinson, C. Bannwarth, F. Bohle, G. Brandenburg, E. Caldeweyher
   M. Checinski, S. Dohm, S. Ehlert, S. Ehrlich, I. Gerasimov, C. Hölzer
   A. Katbashev, J. Koopman, C. Lavigne, S. Lehtola, F. März, M. Müller,
   F. Musil, H. Neugebauer, J. Pisarek, C. Plett, P. Pracht, F. Pultar,
   J. Seibert, P. Shushkov, S. Spicher, M. Stahn, M. Steiner, T. Strunk,
   J. Stückrath, T. Rose, and J. Unsleber
   
 * started run on 2026/04/17 at 12:14:06.712     

           -------------------------------------------------
          |                Calculation Setup                |
           -------------------------------------------------

          program call               : /usr/bin/xtb random_d1.50_009_m1_XTB.xyz --grad -c 0 -u 0 -P 1 --namespace random_d1.50_009_m1 --input random_d1.50_009_m1_XTB.input.tmp --acc 0.200000
          calculation namespace      : random_d1.50_009_m1
          coordinate file            : random_d1.50_009_m1_XTB.xyz
          omp threads                :                     1

   ID    Z sym.   atoms
    1    5 B      1-12

molecular fragmentation (1/2 indicates fragments):
111111111122
# atoms in fragment 1/2:    10     2
 fragment masses (1/2) :      108.11       21.62
CMA distance (Bohr)    :   2.819
constraining FC (au)   :  0.0500

           -------------------------------------------------
          |                 G F N 2 - x T B                 |
           -------------------------------------------------

        Reference                      10.1021/acs.jctc.8b01176
      * Hamiltonian:
        H0-scaling (s, p, d)           1.850000    2.230000    2.230000
        zeta-weighting                 0.500000
      * Dispersion:
        s8                             2.700000
        a1                             0.520000
        a2                             5.000000
        s9                             5.000000
      * Repulsion:
        kExp                           1.500000    1.000000
        rExp                           1.000000
      * Coulomb:
        alpha                          2.000000
        third order                    shell-resolved
        anisotropic                    true
        a3                             3.000000
        a5                             4.000000
        cn-shift                       1.200000
        cn-exp                         4.000000
        max-rad                        5.000000


          ...................................................
          :                      SETUP                      :
          :.................................................:
          :  # basis functions                  48          :
          :  # atomic orbitals                  48          :
          :  # shells                           24          :
          :  # electrons                        36          :
          :  max. iterations                   250          :
          :  Hamiltonian                  GFN2-xTB          :
          :  restarted?                      false          :
          :  GBSA solvation                  false          :
          :  PC potential                    false          :
          :  electronic temp.          300.0000000     K    :
          :  accuracy                    0.2000000          :
          :  -> integral cutoff          0.3198970E+02      :
          :  -> integral neglect         0.2000000E-08      :
          :  -> SCF convergence          0.2000000E-06 Eh   :
          :  -> wf. convergence          0.2000000E-04 e    :
          :  Broyden damping             0.4000000          :
          ...................................................

 iter      E             dE          RMSdq      gap      omega  full diag
   1    -13.2514583 -0.132515E+02  0.187E+01    0.12       0.0  T
   2     -9.2450962  0.400636E+01  0.164E+01    0.18       1.0  T
   3     -4.3220958  0.492300E+01  0.199E+01    0.29       1.0  T
   4    -10.0389289 -0.571683E+01  0.128E+01    0.20       1.0  T
   5     -8.0782837  0.196065E+01  0.130E+01    0.14       1.0  T
   6    -10.8191183 -0.274083E+01  0.103E+01    0.37       1.0  T
   7    -13.1192875 -0.230017E+01  0.729E+00    0.14       1.0  T
   8    -13.3773474 -0.258060E+00  0.600E+00    0.15       1.0  T
   9    -13.4120720 -0.347246E-01  0.532E+00    0.07       1.0  T
  10    -13.4090460  0.302606E-02  0.580E+00    0.26       1.0  T
  11    -13.1874206  0.221625E+00  0.556E+00    0.01       1.0  T
  12    -13.4858373 -0.298417E+00  0.480E+00    0.10       1.0  T
  13    -13.6973013 -0.211464E+00  0.308E+00    0.01       1.0  T
  14    -13.8176295 -0.120328E+00  0.265E+00    0.07       1.0  T
  15    -13.8363261 -0.186966E-01  0.271E+00    0.09       1.0  T
  16    -13.8308777  0.544841E-02  0.288E+00    0.09       1.0  T
  17    -13.8332633 -0.238564E-02  0.289E+00    0.09       1.0  T
  18    -13.8418282 -0.856491E-02  0.216E+00    0.08       1.0  T
  19    -13.8363930  0.543524E-02  0.177E+00    0.10       1.0  T
  20    -13.8434094 -0.701646E-02  0.129E+00    0.08       1.0  T
  21    -13.8449339 -0.152441E-02  0.112E+00    0.07       1.0  T
  22    -13.8436589  0.127491E-02  0.107E+00    0.10       1.0  T
  23    -13.8419086  0.175034E-02  0.116E+00    0.10       1.0  T
  24    -13.8472017 -0.529305E-02  0.788E-01    0.10       1.0  T
  25    -13.8518849 -0.468327E-02  0.617E-01    0.09       1.0  T
  26    -13.8518870 -0.202915E-05  0.631E-01    0.09       1.0  T
  27    -13.8519465 -0.595357E-04  0.637E-01    0.09       1.0  T
  28    -13.8540927 -0.214616E-02  0.302E-01    0.09       1.0  T
  29    -13.8543266 -0.233910E-03  0.176E-01    0.08       1.0  T
  30    -13.8545270 -0.200472E-03  0.661E-02    0.08       1.0  T
  31    -13.8545503 -0.232723E-04  0.306E-02    0.08       1.0  T
  32    -13.8545498  0.462905E-06  0.234E-02    0.08       1.2  T
  33    -13.8545529 -0.300784E-05  0.146E-02    0.08       2.0  T
  34    -13.8545534 -0.512266E-06  0.105E-02    0.08       2.7  T
  35    -13.8545538 -0.434932E-06  0.541E-03    0.08       5.3  T
  36    -13.8545540 -0.150800E-06  0.400E-03    0.08       7.2  T
  37    -13.8545540 -0.401564E-07  0.338E-03    0.08       8.5  T
  38    -13.8545540 -0.528704E-07  0.233E-03    0.08      12.4  T
  39    -13.8545541 -0.457589E-07  0.116E-03    0.08      24.9  T
  40    -13.8545541 -0.118414E-07  0.681E-04    0.08      42.4  T
  41    -13.8545541 -0.340888E-08  0.356E-04    0.08      81.1  T
  42    -13.8545541 -0.932051E-09  0.121E-04    0.08     238.3  T
  43    -13.8545541 -0.176330E-09  0.346E-05    0.08     833.7  T

   *** convergence criteria satisfied after 43 iterations ***

         #    Occupation            Energy/Eh            Energy/eV
      -------------------------------------------------------------
         1        2.0000           -0.4318592             -11.7515
       ...           ...                  ...                  ...
        12        2.0000           -0.2900331              -7.8922
        13        2.0000           -0.2706749              -7.3654
        14        2.0000           -0.2574140              -7.0046
        15        2.0000           -0.2488388              -6.7712
        16        2.0000           -0.2429710              -6.6116
        17        1.9996           -0.2195694              -5.9748
        18        1.6596           -0.2129911              -5.7958 (HOMO)
        19        0.3407           -0.2099822              -5.7139 (LUMO)
        20        0.0001           -0.2019916              -5.4965
        21        0.0000           -0.2001943              -5.4476
        22        0.0000           -0.1957327              -5.3262
        23                         -0.1797811              -4.8921
       ...                                ...                  ...
        48                          2.1126431              57.4879
      -------------------------------------------------------------
                  HL-Gap            0.0030089 Eh            0.0819 eV
             Fermi-level           -0.2114862 Eh           -5.7548 eV

 SCC (total)                   0 d,  0 h,  0 min,  0.052 sec
 SCC setup                      ...        0 min,  0.000 sec (  0.660%)
 Dispersion                     ...        0 min,  0.000 sec (  0.576%)
 classical contributions        ...        0 min,  0.000 sec (  0.082%)
 integral evaluation            ...        0 min,  0.003 sec (  5.478%)
 iterations                     ...        0 min,  0.042 sec ( 81.844%)
 molecular gradient             ...        0 min,  0.005 sec ( 10.526%)
 printout                       ...        0 min,  0.000 sec (  0.569%)

         :::::::::::::::::::::::::::::::::::::::::::::::::::::
         ::                     SUMMARY                     ::
         :::::::::::::::::::::::::::::::::::::::::::::::::::::
         :: total energy             -13.620840986767 Eh    ::
         :: gradient norm              0.434922483924 Eh/a0 ::
         :: HOMO-LUMO gap              0.081875796851 eV    ::
         ::.................................................::
         :: SCC energy               -13.854554106650 Eh    ::
         :: -> isotropic ES            0.064442125658 Eh    ::
         :: -> anisotropic ES          0.000248578075 Eh    ::
         :: -> anisotropic XC         -0.021270420022 Eh    ::
         :: -> dispersion             -0.016531036875 Eh    ::
         :: repulsion energy           0.233692338347 Eh    ::
         :: add. restraining           0.000000000000 Eh    ::
         :: total charge               0.000000000039 e     ::
         :::::::::::::::::::::::::::::::::::::::::::::::::::::


Property printout bound to 'properties.out'

           -------------------------------------------------
          | TOTAL ENERGY              -13.620840986767 Eh   |
          | GRADIENT NORM               0.434922483924 Eh/α |
          | HOMO-LUMO GAP               0.081875796851 eV   |
           -------------------------------------------------

------------------------------------------------------------------------
 * finished run on 2026/04/17 at 12:14:06.786     
------------------------------------------------------------------------
 total:
 * wall-time:     0 d,  0 h,  0 min,  0.074 sec
 *  cpu-time:     0 d,  0 h,  0 min,  0.073 sec
 * ratio c/w:     0.987 speedup
 SCF:
 * wall-time:     0 d,  0 h,  0 min,  0.052 sec
 *  cpu-time:     0 d,  0 h,  0 min,  0.051 sec
 * ratio c/w:     0.984 speedup


-------------------------   --------------------
FINAL SINGLE POINT ENERGY       -13.620840986770
-------------------------   --------------------


-------------
DIPOLE MOMENT
-------------
                                X             Y             Z
Total Dipole Moment    :     -0.59700      -0.11100       0.02100
                        -----------------------------------------
Magnitude (a.u.)       :      0.60759
Magnitude (Debye)      :      1.54438


------------------
CARTESIAN GRADIENT
------------------

   1   B   :   -0.028136266   -0.014680470   -0.067744923
   2   B   :    0.042149265    0.066543001    0.002742027
   3   B   :   -0.001848883    0.009988316   -0.019192762
   4   B   :    0.223933073    0.131361355   -0.087901659
   5   B   :   -0.014695829   -0.029876371    0.028996708
   6   B   :    0.053718026    0.023537057    0.021767521
   7   B   :   -0.011779018    0.008123867   -0.046975556
   8   B   :   -0.012736637   -0.009043714    0.050616762
   9   B   :    0.003689821    0.024784341    0.043088840
  10   B   :    0.009486271   -0.047940291    0.026273279
  11   B   :   -0.225112301   -0.173198435    0.052983312
  12   B   :   -0.038667521    0.010401343   -0.004653550

Difference to translation invariance:
           :   -0.0000000000    0.0000000000    0.0000000000

Difference to rotation invariance:
           :    0.0000000166   -0.0000000178   -0.0000000153

Norm of the Cartesian gradient     ...    0.4349224839
RMS gradient                       ...    0.0724870807
MAX gradient                       ...    0.2251123008
------------------------------------------------------------------------------
                         ORCA GEOMETRY RELAXATION STEP
------------------------------------------------------------------------------

Reading the OPT-File                    .... done
Getting information on internals        .... done
Copying old internal coords+grads       .... done
Making the new internal coordinates     .... (2022 redundants) done
Validating the new internal coordinates .... (2022 redundants) done
Calculating the B-matrix                .... done
Calculating the G,G- and P matrices     .... done
Transforming gradient to internals      .... done
Projecting the internal gradient        .... done
Number of atoms                         ....  12
Number of internal coordinates          ....  95
Current Energy                          ....   -13.620840987 Eh
Current gradient norm                   ....     0.434922484 Eh/bohr
Maximum allowed component of the step   ....  0.300
Current trust radius                    ....  0.300
Evaluating the initial hessian          ....  (Almloef) done
Projecting the Hessian                  .... done
Forming the augmented Hessian           .... done
Diagonalizing the augmented Hessian     .... done
Last element of RFO vector              ....  0.867337576
Lowest eigenvalues of augmented Hessian:
 -0.136198540  0.010034536  0.010985677  0.022402612  0.024436694
Length of the computed step             ....  0.573848459
Warning: the length of the step is outside the trust region - taking restricted step instead
The input lambda is                     ....     0.009000
   iter:   5  x=   -0.014670  g=  241.541181 f(x)=     3.236831
   iter:  10  x=   -0.386854  g=    0.587003 f(x)=     0.059512
   iter:  15  x=   -0.444185  g=    0.238124 f(x)=     0.000000
The output lambda is                    ....    -0.444185 (15 iterations)
The final length of the internal step   ....  0.300000000
Converting the step to Cartesian space:
 Initial RMS(Int)=    0.0307793506
Transforming coordinates:
 Iter   0:  RMS(Cart)=    0.0991863956 RMS(Int)=    0.0309350945
 Iter   5:  RMS(Cart)=    0.0000001910 RMS(Int)=    0.0000001290
done
Storing new coordinates                 .... done

                                .--------------------.
          ----------------------|Geometry convergence|-------------------------
          Item                value                   Tolerance       Converged
          ---------------------------------------------------------------------
          RMS gradient        0.0326661140            0.0000300000      NO
          MAX gradient        0.2732771364            0.0001000000      NO
          RMS step            0.0307793506            0.0006000000      NO
          MAX step            0.1668803638            0.0010000000      NO
          -------------------------------------------------------------------------
          ........................................................
          Max(Bonds)      0.0883      Max(Angles)    5.35
          Max(Dihed)        2.45      Max(Improp)    0.00
          ---------------------------------------------------------------------

The optimization has not yet converged - more geometry cycles are needed


    ---------------------------------------------------------------------------
                         Redundant Internal Coordinates
                            (Angstroem and degrees)

        Definition                    Value    dE/dq     Step     New-Value
    ----------------------------------------------------------------------------
     1. B(B   1,B   0)                2.0004  0.036318 -0.0355    1.9650   
     2. B(B   2,B   1)                1.6196 -0.002882  0.0014    1.6210   
     3. B(B   4,B   0)                1.9236  0.038251 -0.0362    1.8874   
     4. B(B   4,B   1)                1.9592  0.020412 -0.0201    1.9391   
     5. B(B   5,B   4)                2.0725  0.022329 -0.0238    2.0487   
     6. B(B   6,B   4)                1.5649  0.020255 -0.0121    1.5528   
     7. B(B   7,B   4)                1.9411  0.019929 -0.0179    1.9232   
     8. B(B   7,B   5)                2.0556  0.029546 -0.0292    2.0265   
     9. B(B   8,B   6)                1.5647  0.041334 -0.0247    1.5400   
    10. B(B   9,B   2)                1.4694 -0.011710  0.0058    1.4753   
    11. B(B   9,B   1)                1.5088 -0.038572  0.0211    1.5299   
    12. B(B  10,B   5)                1.8982  0.054156 -0.0499    1.8483   
    13. B(B  10,B   3)                1.2938 -0.273277  0.0883    1.3822   
    14. B(B  11,B   7)                1.7362  0.022446 -0.0184    1.7178   
    15. B(B  11,B   4)                1.5997  0.019911 -0.0131    1.5867   
    16. A(B   1,B   0,B   4)           59.87 -0.005209    0.53     60.39   
    17. A(B   4,B   1,B   9)           84.00 -0.009287    0.88     84.88   
    18. A(B   0,B   1,B   4)           58.12  0.003193   -0.30     57.82   
    19. A(B   0,B   1,B   9)          102.73 -0.012400    1.25    103.98   
    20. A(B   0,B   1,B   2)          133.49 -0.000804   -0.02    133.47   
    21. A(B   2,B   1,B   9)           55.89  0.002143   -0.15     55.75   
    22. A(B   2,B   1,B   4)           77.53 -0.002242    0.06     77.58   
    23. A(B   1,B   2,B   9)           58.24 -0.012694    0.77     59.00   
    24. A(B   0,B   4,B  11)           78.94  0.007293   -0.73     78.22   
    25. A(B   0,B   4,B   5)          101.83 -0.001256    0.12    101.95   
    26. A(B   6,B   4,B  11)           85.50 -0.011882    1.09     86.59   
    27. A(B   5,B   4,B   7)           61.51  0.002416   -0.25     61.26   
    28. A(B   6,B   4,B   7)           76.56  0.000818   -0.21     76.35   
    29. A(B   7,B   4,B  11)           57.76  0.001220   -0.11     57.65   
    30. A(B   1,B   4,B   7)          135.56  0.000505   -0.07    135.50   
    31. A(B   0,B   4,B   7)          104.31  0.006148   -0.63    103.68   
    32. A(B   5,B   4,B   6)           95.68  0.012987   -1.35     94.33   
    33. A(B   5,B   4,B  11)          117.07  0.003763   -0.38    116.69   
    34. A(B   1,B   4,B   6)          130.76 -0.000220    0.17    130.93   
    35. A(B   0,B   4,B   6)          160.49 -0.009771    0.97    161.46   
    36. A(B   1,B   4,B   5)           79.37 -0.006095    0.62     79.99   
    37. A(B   0,B   4,B   1)           62.01  0.002015   -0.23     61.78   
    38. A(B   1,B   4,B  11)          140.42  0.009290   -0.96    139.47   
    39. A(B   4,B   5,B   7)           56.10 -0.001282    0.22     56.31   
    40. A(B   7,B   5,B  10)           77.87  0.025676   -2.54     75.33   
    41. A(B   4,B   5,B  10)           77.81  0.014873   -1.30     76.51   
    42. A(B   4,B   6,B   8)          120.67  0.078656   -5.35    115.31   
    43. A(B   4,B   7,B  11)           51.20  0.000640    0.09     51.29   
    44. A(B   4,B   7,B   5)           62.39 -0.001134    0.03     62.43   
    45. A(B   5,B   7,B  11)          111.64 -0.000236    0.09    111.73   
    46. A(B   1,B   9,B   2)           65.87  0.010551   -0.62     65.25   
    47. A(B   3,B  10,B   5)          109.92  0.051431   -3.57    106.35   
    48. A(B   4,B  11,B   7)           71.03 -0.001859    0.03     71.06   
    49. D(B   9,B   1,B   0,B   4)    -74.53  0.001494   -0.09    -74.62   
    50. D(B   2,B   1,B   0,B   4)    -19.84 -0.007547    0.96    -18.88   
    51. D(B   9,B   2,B   1,B   0)    -74.00  0.017631   -1.97    -75.97   
    52. D(B   9,B   2,B   1,B   4)    -91.17  0.010402   -1.08    -92.25   
    53. D(B   6,B   4,B   1,B   0)   -162.02  0.013684   -1.46   -163.49   
    54. D(B   7,B   4,B   0,B   1)   -134.34  0.002785   -0.27   -134.61   
    55. D(B   6,B   4,B   0,B   1)    135.57 -0.014492    1.89    137.46   
    56. D(B   5,B   4,B   0,B   1)    -71.05  0.005718   -0.58    -71.63   
    57. D(B   5,B   4,B   1,B   2)    -84.97 -0.004220    0.53    -84.45   
    58. D(B   0,B   4,B   1,B   9)    109.05 -0.009745    1.01    110.06   
    59. D(B   6,B   4,B   1,B   2)      3.37  0.007905   -0.77      2.60   
    60. D(B   5,B   4,B   1,B   9)   -141.32 -0.008185    0.85   -140.47   
    61. D(B  11,B   4,B   0,B   1)    173.30  0.000693   -0.08    173.22   
    62. D(B   6,B   4,B   1,B   9)    -52.98  0.003939   -0.45    -53.43   
    63. D(B   5,B   4,B   1,B   0)    109.63  0.001560   -0.17    109.47   
    64. D(B   0,B   4,B   1,B   2)    165.39 -0.005779    0.69    166.09   
    65. D(B  10,B   5,B   4,B   1)    -74.73  0.013267   -1.39    -76.12   
    66. D(B  10,B   5,B   4,B   0)    -16.54  0.013673   -1.45    -17.99   
    67. D(B   7,B   5,B   4,B  11)    -16.49  0.000264   -0.01    -16.50   
    68. D(B   7,B   5,B   4,B   1)   -158.19 -0.008366    0.87   -157.32   
    69. D(B   7,B   5,B   4,B   0)   -100.00 -0.007960    0.81    -99.19   
    70. D(B  10,B   5,B   4,B   6)    154.81  0.015415   -1.76    153.05   
    71. D(B   7,B   5,B   4,B   6)     71.35 -0.006218    0.50     71.85   
    72. D(B   8,B   6,B   4,B  11)    109.40  0.003296   -0.36    109.04   
    73. D(B   8,B   6,B   4,B   7)     51.49 -0.000773    0.03     51.52   
    74. D(B   8,B   6,B   4,B   5)     -7.40  0.000856   -0.11     -7.51   
    75. D(B   8,B   6,B   4,B   1)    -88.25 -0.002233    0.23    -88.02   
    76. D(B   8,B   6,B   4,B   0)    146.45  0.019890   -2.45    144.00   
    77. D(B   5,B   7,B   4,B   6)   -104.21 -0.014160    1.39   -102.82   
    78. D(B   5,B   7,B   4,B   1)     31.44 -0.013163    1.36     32.80   
    79. D(B   5,B   7,B   4,B   0)     95.87 -0.004159    0.41     96.28   
    80. D(B  11,B   7,B   5,B  10)    -68.84 -0.002303    0.06    -68.78   
    81. D(B  11,B   7,B   5,B   4)     14.51 -0.000819    0.11     14.62   
    82. D(B   4,B   7,B   5,B  10)    -83.35 -0.001485   -0.05    -83.40   
    83. D(B  11,B   7,B   4,B   5)   -162.62 -0.001122    0.10   -162.52   
    84. D(B  11,B   7,B   4,B   1)   -131.18 -0.014286    1.46   -129.71   
    85. D(B  11,B   7,B   4,B   0)    -66.74 -0.005281    0.51    -66.23   
    86. D(B   5,B   7,B   4,B  11)    162.62  0.001122   -0.10    162.52   
    87. D(B   2,B   9,B   1,B   4)     78.99  0.003561   -0.53     78.46   
    88. D(B   2,B   9,B   1,B   0)    134.36  0.007254   -0.89    133.47   
    89. D(B   3,B  10,B   5,B   7)    -17.61 -0.005797    0.68    -16.93   
    90. D(B   3,B  10,B   5,B   4)    -75.12  0.000330    0.00    -75.11   
    91. D(B   4,B  11,B   7,B   5)    -16.55  0.001269   -0.11    -16.66   
    92. D(B   7,B  11,B   4,B   6)    -76.93 -0.008523    0.94    -75.99   
    93. D(B   7,B  11,B   4,B   5)     17.15 -0.000108   -0.01     17.15   
    94. D(B   7,B  11,B   4,B   1)    124.20  0.002609   -0.28    123.92   
    95. D(B   7,B  11,B   4,B   0)    114.90  0.001560   -0.18    114.71   
    ----------------------------------------------------------------------------

Geometry step timings:
Preparation and reading OPT file:      0.000 s ( 0.948 %)
Internal coordinates            :      0.000 s ( 1.133 %)
B/P matrices and projection     :      0.001 s (19.917 %)
Hessian update/contruction      :      0.001 s (13.625 %)
Making the step                 :      0.002 s (39.417 %)
Converting the step to Cartesian:      0.000 s ( 3.238 %)
Storing new data                :      0.000 s ( 1.966 %)
Checking convergence            :      0.000 s ( 1.041 %)
Final printing                  :      0.001 s (18.644 %)
Total time                      :      0.004 s

Time for energy+gradient        :      0.087 s
Time for complete geometry iter :      0.092 s

         *************************************************************
         *                GEOMETRY OPTIMIZATION CYCLE   2            *
         *************************************************************
---------------------------------
CARTESIAN COORDINATES (ANGSTROEM)
---------------------------------
  B    -0.266299   -0.868373   -1.658387
  B     1.061975    0.559115   -1.415946
  B     1.085212    1.923628   -0.541274
  B    -0.201070   -2.419504    0.253733
  B    -0.389321    0.275063   -0.161749
  B     1.194180   -0.347839    0.979202
  B    -0.974201    1.196853    0.942478
  B    -0.720819   -0.926347    1.302973
  B    -0.291442    1.090581    2.318785
  B     0.305815    1.835199   -1.790786
  B     0.926118   -1.754001   -0.190015
  B    -1.730147   -0.564375   -0.039013

----------------------------
CARTESIAN COORDINATES (A.U.)
----------------------------
  NO LB    ZA    FRAG    MASS        X           Y           Z
   0 B   5.0000    0    10.810   -0.503233   -1.640987   -3.133898
   1 B   5.0000    0    10.810    2.006842    1.056575   -2.675750
   2 B   5.0000    0    10.810    2.050753    3.635130   -1.022860
   3 B   5.0000    0    10.810   -0.379967   -4.572199    0.479486
   4 B   5.0000    0    10.810   -0.735711    0.519794   -0.305661
   5 B   5.0000    0    10.810    2.256672   -0.657321    1.850423
   6 B   5.0000    0    10.810   -1.840973    2.261725    1.781026
   7 B   5.0000    0    10.810   -1.362150   -1.750543    2.462262
   8 B   5.0000    0    10.810   -0.550746    2.060899    4.381868
   9 B   5.0000    0    10.810    0.577907    3.468023   -3.384095
  10 B   5.0000    0    10.810    1.750109   -3.314582   -0.359077
  11 B   5.0000    0    10.810   -3.269504   -1.066515   -0.073724

      -----------------------------------------------------------      
     |                   =====================                   |     
     |                           x T B                           |     
     |                   =====================                   |     
     |                         S. Grimme                         |     
     |          Mulliken Center for Theoretical Chemistry        |     
     |                    University of Bonn                     |     
      -----------------------------------------------------------      

   * xtb version 6.6.1 (unknown) compiled by 'builduser@buildhost' on 2023-08-07

   xtb is free software: you can redistribute it and/or modify it under
   the terms of the GNU Lesser General Public License as published by
   the Free Software Foundation, either version 3 of the License, or
   (at your option) any later version.
   
   xtb is distributed in the hope that it will be useful,
   but WITHOUT ANY WARRANTY; without even the implied warranty of
   MERCHANTABILITY or FITNESS FOR A PARTICULAR PURPOSE.  See the
   GNU Lesser General Public License for more details.
   
   Cite this work as:
   * C. Bannwarth, E. Caldeweyher, S. Ehlert, A. Hansen, P. Pracht,
     J. Seibert, S. Spicher, S. Grimme, WIREs Comput. Mol. Sci., 2020, 11,
     e01493. DOI: 10.1002/wcms.1493
   
   for GFN2-xTB:
   * C. Bannwarth, S. Ehlert and S. Grimme., J. Chem. Theory Comput., 2019,
     15, 1652-1671. DOI: 10.1021/acs.jctc.8b01176
   for GFN1-xTB:
   * S. Grimme, C. Bannwarth, P. Shushkov, J. Chem. Theory Comput., 2017,
     13, 1989-2009. DOI: 10.1021/acs.jctc.7b00118
   for GFN0-xTB:
   * P. Pracht, E. Caldeweyher, S. Ehlert, S. Grimme, ChemRxiv, 2019, preprint.
     DOI: 10.26434/chemrxiv.8326202.v1
   for GFN-FF:
   * S. Spicher and S. Grimme, Angew. Chem. Int. Ed., 2020, 59, 15665-15673.
     DOI: 10.1002/anie.202004239
   
   for ALPB and GBSA implicit solvation:
   * S. Ehlert, M. Stahn, S. Spicher, S. Grimme, J. Chem. Theory Comput.,
     2021, 17, 4250-4261. DOI: 10.1021/acs.jctc.1c00471
   
   for DFT-D4:
   * E. Caldeweyher, C. Bannwarth and S. Grimme, J. Chem. Phys., 2017,
     147, 034112. DOI: 10.1063/1.4993215
   * E. Caldeweyher, S. Ehlert, A. Hansen, H. Neugebauer, S. Spicher,
     C. Bannwarth and S. Grimme, J. Chem. Phys., 2019, 150, 154122.
     DOI: 10.1063/1.5090222
   * E. Caldeweyher, J.-M. Mewes, S. Ehlert and S. Grimme, Phys. Chem. Chem. Phys.
     2020, 22, 8499-8512. DOI: 10.1039/D0CP00502A
   
   for sTDA-xTB:
   * S. Grimme and C. Bannwarth, J. Chem. Phys., 2016, 145, 054103.
     DOI: 10.1063/1.4959605
   
   in the mass-spec context:
   * V. Asgeirsson, C. Bauer and S. Grimme, Chem. Sci., 2017, 8, 4879.
     DOI: 10.1039/c7sc00601b
   * J. Koopman and S. Grimme, ACS Omega 2019, 4, 12, 15120-15133.
     DOI: 10.1021/acsomega.9b02011
   
   for metadynamics refer to:
   * S. Grimme, J. Chem. Theory Comput., 2019, 155, 2847-2862
     DOI: 10.1021/acs.jctc.9b00143
   
   for SPH calculations refer to:
   * S. Spicher and S. Grimme, J. Chem. Theory Comput., 2021, 17, 1701-1714
     DOI: 10.1021/acs.jctc.0c01306
   
   with help from (in alphabetical order)
   P. Atkinson, C. Bannwarth, F. Bohle, G. Brandenburg, E. Caldeweyher
   M. Checinski, S. Dohm, S. Ehlert, S. Ehrlich, I. Gerasimov, C. Hölzer
   A. Katbashev, J. Koopman, C. Lavigne, S. Lehtola, F. März, M. Müller,
   F. Musil, H. Neugebauer, J. Pisarek, C. Plett, P. Pracht, F. Pultar,
   J. Seibert, P. Shushkov, S. Spicher, M. Stahn, M. Steiner, T. Strunk,
   J. Stückrath, T. Rose, and J. Unsleber
   
 * started run on 2026/04/17 at 12:14:06.806     

           -------------------------------------------------
          |                Calculation Setup                |
           -------------------------------------------------

          program call               : /usr/bin/xtb random_d1.50_009_m1_XTB.xyz --grad -c 0 -u 0 -P 1 --namespace random_d1.50_009_m1 --input random_d1.50_009_m1_XTB.input.tmp --acc 0.200000
          calculation namespace      : random_d1.50_009_m1
          coordinate file            : random_d1.50_009_m1_XTB.xyz
          omp threads                :                     1

   ID    Z sym.   atoms
    1    5 B      1-12

molecular fragmentation (1/2 indicates fragments):
111111111112
# atoms in fragment 1/2:    11     1
 fragment masses (1/2) :      118.92       10.81
CMA distance (Bohr)    :   3.753
constraining FC (au)   :  0.0500

           -------------------------------------------------
          |                 G F N 2 - x T B                 |
           -------------------------------------------------

        Reference                      10.1021/acs.jctc.8b01176
      * Hamiltonian:
        H0-scaling (s, p, d)           1.850000    2.230000    2.230000
        zeta-weighting                 0.500000
      * Dispersion:
        s8                             2.700000
        a1                             0.520000
        a2                             5.000000
        s9                             5.000000
      * Repulsion:
        kExp                           1.500000    1.000000
        rExp                           1.000000
      * Coulomb:
        alpha                          2.000000
        third order                    shell-resolved
        anisotropic                    true
        a3                             3.000000
        a5                             4.000000
        cn-shift                       1.200000
        cn-exp                         4.000000
        max-rad                        5.000000

q/qsh data taken from xtbrestart
CAMM data taken from xtbrestart

          ...................................................
          :                      SETUP                      :
          :.................................................:
          :  # basis functions                  48          :
          :  # atomic orbitals                  48          :
          :  # shells                           24          :
          :  # electrons                        36          :
          :  max. iterations                   250          :
          :  Hamiltonian                  GFN2-xTB          :
          :  restarted?                       true          :
          :  GBSA solvation                  false          :
          :  PC potential                    false          :
          :  electronic temp.          300.0000000     K    :
          :  accuracy                    0.2000000          :
          :  -> integral cutoff          0.3198970E+02      :
          :  -> integral neglect         0.2000000E-08      :
          :  -> SCF convergence          0.2000000E-06 Eh   :
          :  -> wf. convergence          0.2000000E-04 e    :
          :  Broyden damping             0.4000000          :
          ...................................................

 iter      E             dE          RMSdq      gap      omega  full diag
   1    -13.8582876 -0.138583E+02  0.323E+00    0.07       0.0  T
   2    -12.7710305  0.108726E+01  0.735E+00    0.35       1.0  T
   3    -13.0064142 -0.235384E+00  0.655E+00    0.11       1.0  T
   4    -13.1615479 -0.155134E+00  0.583E+00    0.39       1.0  T
   5    -13.4763660 -0.314818E+00  0.512E+00    0.19       1.0  T
   6    -13.7270327 -0.250667E+00  0.304E+00    0.21       1.0  T
   7    -13.4546842  0.272349E+00  0.561E+00    0.16       1.0  T
   8    -13.6295842 -0.174900E+00  0.408E+00    0.16       1.0  T
   9    -13.6725512 -0.429670E-01  0.375E+00    0.17       1.0  T
  10    -13.6762272 -0.367599E-02  0.369E+00    0.15       1.0  T
  11    -13.7331578 -0.569307E-01  0.301E+00    0.14       1.0  T
  12    -13.8588910 -0.125733E+00  0.194E+00    0.09       1.0  T
  13    -13.8675412 -0.865012E-02  0.161E+00    0.08       1.0  T
  14    -13.8765159 -0.897472E-02  0.114E+00    0.07       1.0  T
  15    -13.8777489 -0.123305E-02  0.103E+00    0.07       1.0  T
  16    -13.8773518  0.397149E-03  0.102E+00    0.08       1.0  T
  17    -13.8779467 -0.594894E-03  0.955E-01    0.07       1.0  T
  18    -13.8826789 -0.473226E-02  0.371E-01    0.07       1.0  T
  19    -13.8837842 -0.110527E-02  0.241E-01    0.06       1.0  T
  20    -13.8838109 -0.267212E-04  0.241E-01    0.06       1.0  T
  21    -13.8838512 -0.402472E-04  0.219E-01    0.06       1.0  T
  22    -13.8824564  0.139481E-02  0.431E-01    0.07       1.0  T
  23    -13.8837250 -0.126866E-02  0.195E-01    0.07       1.0  T
  24    -13.8838673 -0.142275E-03  0.142E-01    0.07       1.0  T
  25    -13.8838352  0.321527E-04  0.146E-01    0.07       1.0  T
  26    -13.8838655 -0.303079E-04  0.127E-01    0.07       1.0  T
  27    -13.8839545 -0.890790E-04  0.547E-02    0.07       1.0  T
  28    -13.8839517  0.288684E-05  0.518E-02    0.07       1.0  T
  29    -13.8839697 -0.180148E-04  0.199E-02    0.07       1.5  T
  30    -13.8839725 -0.286779E-05  0.675E-03    0.07       4.3  T
  31    -13.8839728 -0.244742E-06  0.512E-03    0.07       5.6  T
  32    -13.8839729 -0.161437E-06  0.263E-03    0.07      11.0  T
  33    -13.8839730 -0.475912E-07  0.962E-04    0.07      30.0  T
  34    -13.8839730 -0.548193E-08  0.466E-04    0.07      61.9  T
  35    -13.8839730 -0.175121E-08  0.215E-04    0.07     134.2  T
  36    -13.8839730 -0.255065E-09  0.836E-05    0.07     345.2  T
  37    -13.8839730 -0.660947E-10  0.186E-05    0.07    1554.6  T

   *** convergence criteria satisfied after 37 iterations ***

         #    Occupation            Energy/Eh            Energy/eV
      -------------------------------------------------------------
         1        2.0000           -0.4321212             -11.7586
       ...           ...                  ...                  ...
        12        2.0000           -0.2886719              -7.8552
        13        2.0000           -0.2709037              -7.3717
        14        2.0000           -0.2609311              -7.1003
        15        2.0000           -0.2492853              -6.7834
        16        2.0000           -0.2367661              -6.4427
        17        2.0000           -0.2195900              -5.9753
        18        1.5657           -0.2090444              -5.6884 (HOMO)
        19        0.4331           -0.2066044              -5.6220 (LUMO)
        20        0.0011           -0.2007303              -5.4621
        21        0.0000           -0.1945989              -5.2953
        22                         -0.1896294              -5.1601
        23                         -0.1715223              -4.6674
       ...                                ...                  ...
        48                          1.4923537              40.6090
      -------------------------------------------------------------
                  HL-Gap            0.0024400 Eh            0.0664 eV
             Fermi-level           -0.2078260 Eh           -5.6552 eV

 SCC (total)                   0 d,  0 h,  0 min,  0.056 sec
 SCC setup                      ...        0 min,  0.000 sec (  0.288%)
 Dispersion                     ...        0 min,  0.000 sec (  0.205%)
 classical contributions        ...        0 min,  0.000 sec (  0.068%)
 integral evaluation            ...        0 min,  0.003 sec (  4.978%)
 iterations                     ...        0 min,  0.046 sec ( 81.943%)
 molecular gradient             ...        0 min,  0.007 sec ( 11.917%)
 printout                       ...        0 min,  0.000 sec (  0.558%)

         :::::::::::::::::::::::::::::::::::::::::::::::::::::
         ::                     SUMMARY                     ::
         :::::::::::::::::::::::::::::::::::::::::::::::::::::
         :: total energy             -13.696378288129 Eh    ::
         :: gradient norm              0.245314608445 Eh/a0 ::
         :: HOMO-LUMO gap              0.066396286191 eV    ::
         ::.................................................::
         :: SCC energy               -13.883972994916 Eh    ::
         :: -> isotropic ES            0.066625167416 Eh    ::
         :: -> anisotropic ES          0.000753738116 Eh    ::
         :: -> anisotropic XC         -0.020823507378 Eh    ::
         :: -> dispersion             -0.015697551935 Eh    ::
         :: repulsion energy           0.187578772772 Eh    ::
         :: add. restraining           0.000000000000 Eh    ::
         :: total charge              -0.000000001589 e     ::
         :::::::::::::::::::::::::::::::::::::::::::::::::::::


Property printout bound to 'properties.out'

           -------------------------------------------------
          | TOTAL ENERGY              -13.696378288129 Eh   |
          | GRADIENT NORM               0.245314608445 Eh/α |
          | HOMO-LUMO GAP               0.066396286191 eV   |
           -------------------------------------------------

------------------------------------------------------------------------
 * finished run on 2026/04/17 at 12:14:06.876     
------------------------------------------------------------------------
 total:
 * wall-time:     0 d,  0 h,  0 min,  0.069 sec
 *  cpu-time:     0 d,  0 h,  0 min,  0.069 sec
 * ratio c/w:     0.999 speedup
 SCF:
 * wall-time:     0 d,  0 h,  0 min,  0.056 sec
 *  cpu-time:     0 d,  0 h,  0 min,  0.056 sec
 * ratio c/w:     0.999 speedup


-------------------------   --------------------
FINAL SINGLE POINT ENERGY       -13.696378288130
-------------------------   --------------------


-------------
DIPOLE MOMENT
-------------
                                X             Y             Z
Total Dipole Moment    :     -0.35900       0.03200       0.04100
                        -----------------------------------------
Magnitude (a.u.)       :      0.36275
Magnitude (Debye)      :      0.92203


------------------
CARTESIAN GRADIENT
------------------

   1   B   :   -0.024886545   -0.015571069   -0.067810548
   2   B   :    0.046112120    0.059259645    0.003323521
   3   B   :    0.000717778    0.006859418   -0.011030822
   4   B   :    0.098567019    0.034318611   -0.061363566
   5   B   :   -0.015957614   -0.034082992    0.030723015
   6   B   :    0.056634960    0.017040738    0.012270358
   7   B   :   -0.007601313    0.005618004   -0.035589352
   8   B   :   -0.004630847    0.001897988    0.040987417
   9   B   :   -0.016076738    0.036225263    0.038654571
  10   B   :    0.000766721   -0.039904632    0.019740407
  11   B   :   -0.105581907   -0.086334243    0.020882747
  12   B   :   -0.028063634    0.014673269    0.009212253

Difference to translation invariance:
           :    0.0000000000   -0.0000000000    0.0000000000

Difference to rotation invariance:
           :   -0.0000000020   -0.0000000022    0.0000000013

Norm of the Cartesian gradient     ...    0.2453146084
RMS gradient                       ...    0.0408857681
MAX gradient                       ...    0.1055819074
------------------------------------------------------------------------------
                         ORCA GEOMETRY RELAXATION STEP
------------------------------------------------------------------------------

Reading the OPT-File                    .... done
Getting information on internals        .... done
Copying old internal coords+grads       .... done
Making the new internal coordinates     .... (2022 redundants) done
Validating the new internal coordinates .... (2022 redundants) done
Calculating the B-matrix                .... done
Calculating the G,G- and P matrices     .... done
Transforming gradient to internals      .... done
Projecting the internal gradient        .... done
Number of atoms                         ....  12
Number of internal coordinates          ....  95
Current Energy                          ....   -13.696378288 Eh
Current gradient norm                   ....     0.245314608 Eh/bohr
Maximum allowed component of the step   ....  0.300
Current trust radius                    ....  0.300
Updating the Hessian (BFGS)             .... done
Forming the augmented Hessian           .... done
Diagonalizing the augmented Hessian     .... done
Last element of RFO vector              ....  0.735819320
Lowest eigenvalues of augmented Hessian:
 -0.227503570  0.010026400  0.010727137  0.022564302  0.024831530
Length of the computed step             ....  0.920304615
Warning: the length of the step is outside the trust region - taking restricted step instead
The input lambda is                     ....     0.009005
   iter:   5  x=   -0.049382  g=  775.659875 f(x)=    19.365346
   iter:  10  x=   -0.498939  g=    2.058671 f(x)=     0.309838
   iter:  15  x=   -0.782371  g=    0.216945 f(x)=     0.000001
The output lambda is                    ....    -0.782371 (17 iterations)
The final length of the internal step   ....  0.300000000
Converting the step to Cartesian space:
 Initial RMS(Int)=    0.0307793506
Transforming coordinates:
 Iter   0:  RMS(Cart)=    0.1305407917 RMS(Int)=    0.0310530099
 Iter   5:  RMS(Cart)=    0.0000042562 RMS(Int)=    0.0000023651
done
Storing new coordinates                 .... done
The predicted energy change is          ....    -0.072705237
Previously predicted energy change      ....    -0.062630488
Actually observed energy change         ....    -0.075537301
Ratio of predicted to observed change   ....     1.206078770
New trust radius                        ....     0.450000000

                                .--------------------.
          ----------------------|Geometry convergence|-------------------------
          Item                value                   Tolerance       Converged
          ---------------------------------------------------------------------
          Energy change      -0.0755373014            0.0000010000      NO
          RMS gradient        0.0257145844            0.0000300000      NO
          MAX gradient        0.1429218183            0.0001000000      NO
          RMS step            0.0307793506            0.0006000000      NO
          MAX step            0.1609785699            0.0010000000      NO
          -------------------------------------------------------------------------
          ........................................................
          Max(Bonds)      0.0710      Max(Angles)    9.22
          Max(Dihed)        2.18      Max(Improp)    0.00
          ---------------------------------------------------------------------

The optimization has not yet converged - more geometry cycles are needed


    ---------------------------------------------------------------------------
                         Redundant Internal Coordinates
                            (Angstroem and degrees)

        Definition                    Value    dE/dq     Step     New-Value
    ----------------------------------------------------------------------------
     1. B(B   1,B   0)                1.9649  0.035514 -0.0248    1.9401   
     2. B(B   2,B   1)                1.6210 -0.002426  0.0016    1.6225   
     3. B(B   4,B   0)                1.8875  0.039604 -0.0276    1.8598   
     4. B(B   4,B   1)                1.9391  0.017085 -0.0119    1.9271   
     5. B(B   5,B   4)                2.0487  0.019236 -0.0134    2.0353   
     6. B(B   6,B   4)                1.5528  0.035938 -0.0209    1.5319   
     7. B(B   7,B   4)                1.9232  0.012927 -0.0090    1.9142   
     8. B(B   7,B   5)                2.0265  0.023528 -0.0160    2.0105   
     9. B(B   8,B   6)                1.5400  0.024918 -0.0174    1.5226   
    10. B(B   9,B   2)                1.4753 -0.006210  0.0041    1.4794   
    11. B(B   9,B   1)                1.5299 -0.030119  0.0193    1.5492   
    12. B(B  10,B   5)                1.8483  0.066198 -0.0463    1.8020   
    13. B(B  10,B   3)                1.3822 -0.116609  0.0710    1.4532   
    14. B(B  11,B   7)                1.7178  0.013400 -0.0098    1.7080   
    15. B(B  11,B   4)                1.5867  0.011935 -0.0084    1.5783   
    16. A(B   1,B   0,B   4)           60.40 -0.006541    0.49     60.89   
    17. A(B   4,B   1,B   9)           84.88 -0.011802    0.88     85.76   
    18. A(B   0,B   1,B   4)           57.82  0.004331   -0.32     57.50   
    19. A(B   0,B   1,B   9)          103.98 -0.013705    1.00    104.98   
    20. A(B   0,B   1,B   2)          133.46 -0.002519    0.17    133.63   
    21. A(B   2,B   1,B   9)           55.75  0.002913   -0.20     55.55   
    22. A(B   2,B   1,B   4)           77.59 -0.005544    0.40     77.98   
    23. A(B   1,B   2,B   9)           59.00 -0.010330    0.71     59.71   
    24. A(B   0,B   4,B  11)           78.22  0.010035   -0.76     77.46   
    25. A(B   0,B   4,B   5)          101.95 -0.008102    0.64    102.59   
    26. A(B   6,B   4,B  11)           86.60 -0.020993    1.55     88.15   
    27. A(B   5,B   4,B   7)           61.26  0.002134   -0.14     61.11   
    28. A(B   6,B   4,B   7)           76.37  0.003766   -0.33     76.04   
    29. A(B   7,B   4,B  11)           57.65  0.000508   -0.05     57.60   
    30. A(B   1,B   4,B   7)          135.49 -0.002809    0.22    135.71   
    31. A(B   0,B   4,B   7)          103.69  0.003713   -0.28    103.41   
    32. A(B   5,B   4,B   6)           94.34  0.026563   -2.03     92.30   
    33. A(B   5,B   4,B  11)          116.69  0.002400   -0.18    116.52   
    34. A(B   1,B   4,B   6)          130.91  0.004803   -0.32    130.60   
    35. A(B   0,B   4,B   6)          161.45 -0.017348    1.30    162.75   
    36. A(B   1,B   4,B   5)           79.99 -0.010699    0.81     80.80   
    37. A(B   0,B   4,B   1)           61.78  0.002210   -0.16     61.61   
    38. A(B   1,B   4,B  11)          139.47  0.012385   -0.93    138.53   
    39. A(B   4,B   5,B   7)           56.32 -0.002125    0.15     56.47   
    40. A(B   7,B   5,B  10)           75.34  0.031501   -2.38     72.95   
    41. A(B   4,B   5,B  10)           76.52  0.016482   -1.23     75.29   
    42. A(B   4,B   6,B   8)          115.31  0.142922   -9.22    106.09   
    43. A(B   4,B   7,B  11)           51.29  0.000218   -0.01     51.28   
    44. A(B   4,B   7,B   5)           62.43 -0.000009   -0.01     62.42   
    45. A(B   5,B   7,B  11)          111.73  0.000082   -0.00    111.73   
    46. A(B   1,B   9,B   2)           65.25  0.007417   -0.52     64.74   
    47. A(B   3,B  10,B   5)          106.35  0.085031   -5.59    100.76   
    48. A(B   4,B  11,B   7)           71.06 -0.000726    0.07     71.12   
    49. D(B   9,B   1,B   0,B   4)    -74.61  0.003092   -0.25    -74.86   
    50. D(B   2,B   1,B   0,B   4)    -18.88 -0.005294    0.38    -18.50   
    51. D(B   9,B   2,B   1,B   0)    -75.96  0.017142   -1.27    -77.23   
    52. D(B   9,B   2,B   1,B   4)    -92.25  0.011466   -0.86    -93.11   
    53. D(B   6,B   4,B   1,B   0)   -163.47  0.021431   -1.63   -165.11   
    54. D(B   7,B   4,B   0,B   1)   -134.61  0.005552   -0.43   -135.04   
    55. D(B   6,B   4,B   0,B   1)    137.48 -0.014998    1.13    138.61   
    56. D(B   5,B   4,B   0,B   1)    -71.63  0.006842   -0.50    -72.13   
    57. D(B   5,B   4,B   1,B   2)    -84.45 -0.008493    0.66    -83.79   
    58. D(B   0,B   4,B   1,B   9)    110.06 -0.009911    0.71    110.77   
    59. D(B   6,B   4,B   1,B   2)      2.61  0.016701   -1.29      1.32   
    60. D(B   5,B   4,B   1,B   9)   -140.47 -0.013674    1.03   -139.44   
    61. D(B  11,B   4,B   0,B   1)    173.22  0.001943   -0.14    173.08   
    62. D(B   6,B   4,B   1,B   9)    -53.41  0.011520   -0.92    -54.33   
    63. D(B   5,B   4,B   1,B   0)    109.47 -0.003763    0.32    109.79   
    64. D(B   0,B   4,B   1,B   2)    166.08 -0.004730    0.34    166.42   
    65. D(B  10,B   5,B   4,B   1)    -76.12  0.017861   -1.34    -77.46   
    66. D(B  10,B   5,B   4,B   0)    -18.01  0.019151   -1.44    -19.45   
    67. D(B   7,B   5,B   4,B  11)    -16.50 -0.000950    0.10    -16.41   
    68. D(B   7,B   5,B   4,B   1)   -157.32 -0.010041    0.78   -156.54   
    69. D(B   7,B   5,B   4,B   0)    -99.20 -0.008751    0.67    -98.53   
    70. D(B  10,B   5,B   4,B   6)    153.06  0.016872   -1.31    151.75   
    71. D(B   7,B   5,B   4,B   6)     71.87 -0.011030    0.80     72.67   
    72. D(B   8,B   6,B   4,B  11)    109.04  0.002343   -0.14    108.89   
    73. D(B   8,B   6,B   4,B   7)     51.53 -0.003741    0.30     51.83   
    74. D(B   8,B   6,B   4,B   5)     -7.50  0.001848   -0.14     -7.64   
    75. D(B   8,B   6,B   4,B   1)    -88.01 -0.006652    0.53    -87.48   
    76. D(B   8,B   6,B   4,B   0)    143.98  0.021127   -1.57    142.41   
    77. D(B   5,B   7,B   4,B   6)   -102.81 -0.028755    2.18   -100.63   
    78. D(B   5,B   7,B   4,B   1)     32.80 -0.018541    1.43     34.23   
    79. D(B   5,B   7,B   4,B   0)     96.28 -0.010915    0.86     97.14   
    80. D(B  11,B   7,B   5,B  10)    -68.77  0.000234   -0.07    -68.84   
    81. D(B  11,B   7,B   5,B   4)     14.62  0.000491   -0.05     14.56   
    82. D(B   4,B   7,B   5,B  10)    -83.39 -0.000258   -0.02    -83.41   
    83. D(B  11,B   7,B   4,B   5)   -162.52  0.000528   -0.06   -162.58   
    84. D(B  11,B   7,B   4,B   1)   -129.72 -0.018013    1.36   -128.35   
    85. D(B  11,B   7,B   4,B   0)    -66.24 -0.010387    0.79    -65.44   
    86. D(B   5,B   7,B   4,B  11)    162.52 -0.000528    0.06    162.58   
    87. D(B   2,B   9,B   1,B   4)     78.46  0.001413   -0.11     78.34   
    88. D(B   2,B   9,B   1,B   0)    133.47  0.005602   -0.43    133.05   
    89. D(B   3,B  10,B   5,B   7)    -16.92 -0.005621    0.38    -16.53   
    90. D(B   3,B  10,B   5,B   4)    -75.13  0.002989   -0.23    -75.35   
    91. D(B   4,B  11,B   7,B   5)    -16.66 -0.000510    0.06    -16.60   
    92. D(B   7,B  11,B   4,B   6)    -76.00 -0.017914    1.38    -74.62   
    93. D(B   7,B  11,B   4,B   5)     17.15  0.001251   -0.11     17.03   
    94. D(B   7,B  11,B   4,B   1)    123.93 -0.003534    0.26    124.19   
    95. D(B   7,B  11,B   4,B   0)    114.72 -0.003423    0.26    114.99   
    ----------------------------------------------------------------------------

Geometry step timings:
Preparation and reading OPT file:      0.000 s ( 0.651 %)
Internal coordinates            :      0.000 s ( 1.302 %)
B/P matrices and projection     :      0.001 s (22.130 %)
Hessian update/contruction      :      0.001 s (15.917 %)
Making the step                 :      0.002 s (32.899 %)
Converting the step to Cartesian:      0.000 s ( 3.156 %)
Storing new data                :      0.000 s ( 1.085 %)
Checking convergence            :      0.000 s ( 1.026 %)
Final printing                  :      0.001 s (21.795 %)
Total time                      :      0.005 s

[...]
 molecular gradient             ...        0 min,  0.007 sec ( 27.258%)
 printout                       ...        0 min,  0.000 sec (  1.492%)

         :::::::::::::::::::::::::::::::::::::::::::::::::::::
         ::                     SUMMARY                     ::
         :::::::::::::::::::::::::::::::::::::::::::::::::::::
         :: total energy             -14.174549549605 Eh    ::
         :: gradient norm              0.008642285910 Eh/a0 ::
         :: HOMO-LUMO gap              1.186491004355 eV    ::
         ::.................................................::
         :: SCC energy               -14.427292292424 Eh    ::
         :: -> isotropic ES            0.085588627775 Eh    ::
         :: -> anisotropic ES          0.001506728668 Eh    ::
         :: -> anisotropic XC         -0.031823665639 Eh    ::
         :: -> dispersion             -0.009427211688 Eh    ::
         :: repulsion energy           0.252736547314 Eh    ::
         :: add. restraining           0.000000000000 Eh    ::
         :: total charge              -0.000000000002 e     ::
         :::::::::::::::::::::::::::::::::::::::::::::::::::::


Property printout bound to 'properties.out'

           -------------------------------------------------
          | TOTAL ENERGY              -14.174549549605 Eh   |
          | GRADIENT NORM               0.008642285910 Eh/α |
          | HOMO-LUMO GAP               1.186491004355 eV   |
           -------------------------------------------------

------------------------------------------------------------------------
 * finished run on 2026/04/17 at 12:14:09.714     
------------------------------------------------------------------------
 total:
 * wall-time:     0 d,  0 h,  0 min,  0.037 sec
 *  cpu-time:     0 d,  0 h,  0 min,  0.037 sec
 * ratio c/w:     0.998 speedup
 SCF:
 * wall-time:     0 d,  0 h,  0 min,  0.024 sec
 *  cpu-time:     0 d,  0 h,  0 min,  0.024 sec
 * ratio c/w:     1.000 speedup


-------------------------   --------------------
FINAL SINGLE POINT ENERGY       -14.174549549600
-------------------------   --------------------


-------------
DIPOLE MOMENT
-------------
                                X             Y             Z
Total Dipole Moment    :      0.20700      -0.10800      -0.28000
                        -----------------------------------------
Magnitude (a.u.)       :      0.36457
Magnitude (Debye)      :      0.92667


------------------
CARTESIAN GRADIENT
------------------

   1   B   :   -0.002220082    0.000356352   -0.001532811
   2   B   :   -0.000815065   -0.000451925   -0.003157649
   3   B   :   -0.000904714    0.000716693    0.000395708
   4   B   :    0.000519526    0.001373872    0.001062475
   5   B   :    0.001860042   -0.001429901    0.002550163
   6   B   :   -0.001838858    0.002032337    0.001695713
   7   B   :    0.000103384    0.001697133   -0.000982048
   8   B   :    0.001017575   -0.000500924   -0.001372435
   9   B   :    0.001005433   -0.000881647   -0.001449096
  10   B   :    0.001789812   -0.000091681    0.002099560
  11   B   :   -0.000801399   -0.002339179   -0.001082465
  12   B   :    0.000284347   -0.000481130    0.001772885

Difference to translation invariance:
           :    0.0000000000   -0.0000000000   -0.0000000000

Difference to rotation invariance:
           :   -0.0000000227   -0.0000000002    0.0000000099

Norm of the Cartesian gradient     ...    0.0086422859
RMS gradient                       ...    0.0014403810
MAX gradient                       ...    0.0031576487
------------------------------------------------------------------------------
                         ORCA GEOMETRY RELAXATION STEP
------------------------------------------------------------------------------

Reading the OPT-File                    .... done
Getting information on internals        .... done
Copying old internal coords+grads       .... done
Making the new internal coordinates     .... (2022 redundants) done
Validating the new internal coordinates .... (2022 redundants) done
Calculating the B-matrix                .... done
Calculating the G,G- and P matrices     .... done
Transforming gradient to internals      .... done
Projecting the internal gradient        .... done
Number of atoms                         ....  12
Number of internal coordinates          ....  95
Current Energy                          ....   -14.174549550 Eh
Current gradient norm                   ....     0.008642286 Eh/bohr
Maximum allowed component of the step   ....  0.300
Current trust radius                    ....  0.700
Updating the Hessian (BFGS)             .... done
Forming the augmented Hessian           .... done
Diagonalizing the augmented Hessian     .... done
Last element of RFO vector              ....  0.993060178
Lowest eigenvalues of augmented Hessian:
 -0.000196718  0.005390369  0.007155890  0.010179381  0.016404925
Length of the computed step             ....  0.118429202
The final length of the internal step   ....  0.118429202
Converting the step to Cartesian space:
 Initial RMS(Int)=    0.0121505797
Transforming coordinates:
 Iter   0:  RMS(Cart)=    0.0214807488 RMS(Int)=    0.6427006880
done
Storing new coordinates                 .... done
The predicted energy change is          ....    -0.000099739
Previously predicted energy change      ....    -0.000099890
Actually observed energy change         ....    -0.000140552
Ratio of predicted to observed change   ....     1.407063299
New trust radius                        ....     0.700000000

                                .--------------------.
          ----------------------|Geometry convergence|-------------------------
          Item                value                   Tolerance       Converged
          ---------------------------------------------------------------------
          Energy change      -0.0001405520            0.0000010000      NO
          RMS gradient        0.0008219645            0.0000300000      NO
          MAX gradient        0.0054630072            0.0001000000      NO
          RMS step            0.0121505797            0.0006000000      NO
          MAX step            0.0423272690            0.0010000000      NO
          -------------------------------------------------------------------------
          ........................................................
          Max(Bonds)      0.0185      Max(Angles)    1.53
          Max(Dihed)        2.43      Max(Improp)    0.00
          ---------------------------------------------------------------------

The optimization has not yet converged - more geometry cycles are needed


    ---------------------------------------------------------------------------
                         Redundant Internal Coordinates
                            (Angstroem and degrees)

        Definition                    Value    dE/dq     Step     New-Value
    ----------------------------------------------------------------------------
     1. B(B   1,B   0)                1.6070  0.000282 -0.0003    1.6067   
     2. B(B   2,B   1)                1.5870 -0.000355 -0.0014    1.5857   
     3. B(B   4,B   0)                1.6027  0.000856 -0.0025    1.6001   
     4. B(B   4,B   1)                2.8864  0.000475  0.0185    2.9049   
     5. B(B   5,B   4)                1.9304  0.000284  0.0067    1.9371   
     6. B(B   6,B   4)                1.5234 -0.002496  0.0004    1.5238   
     7. B(B   7,B   4)                2.0505  0.000212 -0.0066    2.0439   
     8. B(B   7,B   5)                1.8553 -0.001400  0.0052    1.8605   
     9. B(B   8,B   6)                1.5358  0.000081 -0.0029    1.5329   
    10. B(B   9,B   2)                1.4334 -0.000403  0.0008    1.4342   
    11. B(B   9,B   1)                1.5749 -0.001468  0.0026    1.5775   
    12. B(B  10,B   5)                1.5425  0.000245 -0.0012    1.5413   
    13. B(B  10,B   3)                1.5362 -0.001356  0.0042    1.5404   
    14. B(B  11,B   7)                1.5373 -0.000979  0.0021    1.5393   
    15. B(B  11,B   4)                2.2324  0.000077 -0.0011    2.2313   
    16. A(B   1,B   0,B   4)          128.13 -0.000413    1.53    129.66   
    17. A(B   4,B   1,B   9)          153.73 -0.000006    0.01    153.75   
    18. A(B   0,B   1,B   4)           25.90  0.000252   -0.80     25.10   
    19. A(B   0,B   1,B   9)          159.39  0.000088   -0.41    158.98   
    20. A(B   0,B   1,B   2)          146.47 -0.000250    0.61    147.08   
    21. A(B   2,B   1,B   9)           53.91  0.000156    0.02     53.93   
    22. A(B   2,B   1,B   4)          128.67 -0.000562    0.99    129.66   
    23. A(B   1,B   2,B   9)           62.61 -0.000445    0.13     62.75   
    24. A(B   0,B   4,B  11)           60.50  0.000553   -0.19     60.31   
    25. A(B   0,B   4,B   5)          104.95  0.000880   -0.29    104.66   
    26. A(B   6,B   4,B  11)          111.96 -0.000578   -0.05    111.91   
    27. A(B   5,B   4,B   7)           55.46 -0.000490    0.18     55.64   
    28. A(B   6,B   4,B   7)           70.16 -0.000292   -0.25     69.91   
    29. A(B   7,B   4,B  11)           41.80 -0.000285    0.13     41.92   
    30. A(B   1,B   4,B   7)          126.84  0.000464   -0.54    126.30   
    31. A(B   0,B   4,B   7)          102.25  0.000290   -0.24    102.01   
    32. A(B   5,B   4,B   6)           68.64 -0.000905    0.08     68.72   
    33. A(B   5,B   4,B  11)           72.38 -0.000380    0.03     72.41   
    34. A(B   1,B   4,B   6)          162.11 -0.000163    0.98    163.09   
    35. A(B   0,B   4,B   6)          171.90  0.000001    0.07    171.97   
    36. A(B   1,B   4,B   5)          123.82  0.001005   -0.95    122.87   
    37. A(B   0,B   4,B   1)           25.97  0.000161   -0.73     25.25   
    38. A(B   1,B   4,B  11)           85.24  0.000784   -0.77     84.47   
    39. A(B   4,B   5,B   7)           65.56  0.000257   -0.48     65.08   
    40. A(B   7,B   5,B  10)           94.49 -0.000655   -0.21     94.28   
    41. A(B   4,B   5,B  10)           81.77 -0.000353   -0.16     81.61   
    42. A(B   4,B   6,B   8)          107.34 -0.005463   -0.02    107.32   
    43. A(B   4,B   7,B  11)           75.45  0.000142    0.15     75.59   
    44. A(B   4,B   7,B   5)           58.99  0.000233    0.30     59.28   
    45. A(B   5,B   7,B  11)           92.97  0.000342    0.08     93.05   
    46. A(B   1,B   9,B   2)           63.47  0.000289   -0.15     63.32   
    47. A(B   3,B  10,B   5)          132.23 -0.001169    0.37    132.60   
    48. A(B   4,B  11,B   7)           62.76  0.000142   -0.27     62.48   
    49. D(B   9,B   1,B   0,B   4)   -110.85 -0.000396    0.64   -110.22   
    50. D(B   2,B   1,B   0,B   4)     58.77 -0.000536   -0.17     58.60   
    51. D(B   9,B   2,B   1,B   0)   -175.50  0.000033    0.49   -175.01   
    52. D(B   9,B   2,B   1,B   4)   -146.92 -0.000106    0.19   -146.74   
    53. D(B   6,B   4,B   1,B   0)    178.68 -0.000040   -0.65    178.03   
    54. D(B   7,B   4,B   0,B   1)    162.75  0.000171    0.85    163.60   
    55. D(B   6,B   4,B   0,B   1)   -177.13  0.000114    2.07   -175.06   
    56. D(B   5,B   4,B   0,B   1)   -140.12 -0.000211    0.99   -139.13   
    57. D(B   5,B   4,B   1,B   2)    -94.56 -0.000094    0.70    -93.85   
    58. D(B   0,B   4,B   1,B   9)    131.99  0.000441   -1.78    130.21   
    59. D(B   6,B   4,B   1,B   2)     35.91 -0.000342   -0.59     35.31   
    60. D(B   5,B   4,B   1,B   9)   -179.79  0.000649   -1.13   -180.91   
    61. D(B  11,B   4,B   0,B   1)    160.62  0.000652    1.02    161.64   
    62. D(B   6,B   4,B   1,B   9)    -49.33  0.000401   -2.43    -51.75   
    63. D(B   5,B   4,B   1,B   0)     48.22  0.000208    0.65     48.87   
    64. D(B   0,B   4,B   1,B   2)   -142.78 -0.000302    0.06   -142.72   
    65. D(B  10,B   5,B   4,B   1)    -15.73 -0.000554    0.12    -15.61   
    66. D(B  10,B   5,B   4,B   0)      4.03 -0.000284    0.04      4.07   
    67. D(B   7,B   5,B   4,B  11)    -43.04  0.000233   -0.14    -43.18   
    68. D(B   7,B   5,B   4,B   1)   -114.51  0.000064    0.20   -114.31   
    69. D(B   7,B   5,B   4,B   0)    -94.75  0.000334    0.12    -94.63   
    70. D(B  10,B   5,B   4,B   6)    178.80 -0.000277   -0.44    178.36   
    71. D(B   7,B   5,B   4,B   6)     80.02  0.000342   -0.36     79.66   
    72. D(B   8,B   6,B   4,B  11)     26.69 -0.000125    0.05     26.73   
    73. D(B   8,B   6,B   4,B   7)     26.82  0.000302    0.19     27.00   
    74. D(B   8,B   6,B   4,B   5)    -32.77  0.000594    0.08    -32.69   
    75. D(B   8,B   6,B   4,B   1)   -170.03  0.000495    1.61   -168.42   
    76. D(B   8,B   6,B   4,B   0)      5.88  0.000345   -0.94      4.93   
    77. D(B   5,B   7,B   4,B   6)    -77.20  0.000828   -0.17    -77.37   
    78. D(B   5,B   7,B   4,B   1)    109.19  0.000852   -0.95    108.24   
    79. D(B   5,B   7,B   4,B   0)     99.85  0.000831   -0.11     99.74   
    80. D(B  11,B   7,B   5,B  10)     -7.80  0.000043    0.48     -7.32   
    81. D(B  11,B   7,B   5,B   4)     71.05  0.000007    0.33     71.38   
    82. D(B   4,B   7,B   5,B  10)    -78.84  0.000035    0.15    -78.70   
    83. D(B  11,B   7,B   4,B   5)   -102.62 -0.000233    0.27   -102.35   
    84. D(B  11,B   7,B   4,B   1)      6.57  0.000619   -0.68      5.89   
    85. D(B  11,B   7,B   4,B   0)     -2.77  0.000598    0.15     -2.62   
    86. D(B   5,B   7,B   4,B  11)    102.62  0.000233   -0.27    102.35   
    87. D(B   2,B   9,B   1,B   4)    105.67 -0.000977    2.16    107.84   
    88. D(B   2,B   9,B   1,B   0)    172.93 -0.000127   -0.28    172.64   
    89. D(B   3,B  10,B   5,B   7)     16.39  0.001387   -0.63     15.76   
    90. D(B   3,B  10,B   5,B   4)    -48.10  0.001049   -0.23    -48.32   
    91. D(B   4,B  11,B   7,B   5)    -56.87 -0.000162   -0.39    -57.26   
    92. D(B   7,B  11,B   4,B   6)      0.19  0.000603    0.52      0.70   
    93. D(B   7,B  11,B   4,B   5)     57.50 -0.000422    0.31     57.81   
    94. D(B   7,B  11,B   4,B   1)   -174.73  0.000458   -0.19   -174.92   
    95. D(B   7,B  11,B   4,B   0)    176.89  0.000692    0.24    177.13   
    ----------------------------------------------------------------------------

Geometry step timings:
Preparation and reading OPT file:      0.000 s ( 0.884 %)
Internal coordinates            :      0.000 s ( 1.111 %)
B/P matrices and projection     :      0.001 s (22.955 %)
Hessian update/contruction      :      0.001 s (19.571 %)
Making the step                 :      0.001 s (28.864 %)
Converting the step to Cartesian:      0.000 s ( 3.131 %)
Storing new data                :      0.000 s ( 1.439 %)
Checking convergence            :      0.000 s ( 1.742 %)
Final printing                  :      0.001 s (20.303 %)
Total time                      :      0.004 s

Time for energy+gradient        :      0.056 s
Time for complete geometry iter :      0.062 s




    ----------------------------------------------------------------------------
                                  WARNING !!!
       The optimization did not converge but reached the maximum number of
       optimization cycles.
       Please check your results very carefully.
    ----------------------------------------------------------------------------



--------------------------------
SUGGESTED CITATIONS FOR THIS RUN
--------------------------------

Below you find a list of papers that are relevant to this ORCA run
We neither can nor want to force you to cite these papers, but we appreciate if you do
You receive ORCA, which is the product of decades of hard work by many enthusiastic individuals, for free
The only thing we kindly ask in return is that you cite our papers,
We deeply appreciate it, if you show your appreciation for ORCA by not just citing the generic ORCA reference.

Please note that relegating all ORCA citations to the supporting information does *not* help us.
SI sections are not indexed - citations you put there will not count into any citation statistics
But we need these citations in order to attract the funding resources that allow us to do what we are doing

Therefore, if you are a happy ORCA user, please consider citing a few of the papers listed below in the main body of your paper

In addition to the list printed below, the program has created the file random_d1.50_009_m1.bibtex that contains the list in bibtex format
You can import this file easily into all common literature databanks and citation aid programs

It goes without saying that in many instances, there are alternative algorithms to achieve similar
results as the ones you have gotten from ORCA. It is, of course, also the case that in some instances
ORCA just re-implements algorithms worked out by others. We are fully aware of that and we are also
fully appreciative of our colleagues work. Hence this citation list should not be read as indicating
that the listed papers, which are focused on our own work, are the only ones worth citing. It simply
meant to make it easier for users to cite ORCA specific papers. It is not a substitute for doing your
own literature research and citing the relevant literature in a scientifically appropriate manner.

List of essential papers. We consider these as the minimum necessary citations

  1. Bannwarth, C.; Ehlert, S.; Grimme, S.
     GFN2-xTB—An Accurate and Broadly Parametrized Self-Consistent Tight-Binding Quantum Chemical Method with Multipole Electrostatics and Density-Dependent Dispersion Contributions
     J. Chem. Theory Comput. 2019 15(3), 1652-1671
     doi.org/10.1021/acs.jctc.8b01176
  2. Neese, F.
     Software update: the ORCA program system, version 6.0
     WIRES Comput. Molec. Sci. 2025 15(1), e70019
     doi.org/10.1002/wcms.70019

List of papers to cite with high priority. The work reported in these papers was absolutely
necessary for this run to complete.
Our perspective: the developers of density functionals and basis sets usually get cited in chemistry papers
Good! But without the algorithms to do something with them, the functionals or basis sets would not do anything.
Hence, in our opinion, the algorithm design and method developments papers are equally worthy of getting cited

  1. Bannwarth, C.; Caldeweyher, E.; Ehlert, S.; Hansen, A.; Pracht, P.; Seibert, J.; Spicher, S.; Grimme, S.
     Extended tight-binding quantum chemistry methods
     WIRES Comput. Molec. Sci. 2020 11(2), e1493
     doi.org/10.1002/wcms.1493

List of suggested additional citations. These are papers that are important in the 'surrounding' of 
of this run, or papers that preceded the highly important papers. If you like your results we are grateful for a citation.

  1. Neese, F.
     The ORCA program system
     WIRES Comput. Molec. Sci. 2012 2(1), 73-78
     doi.org/10.1002/wcms.81
  2. Neese, F.
     Software update: the ORCA program system, version 4.0
     WIRES Comput. Molec. Sci. 2018 8(1), 1-6
     doi.org/10.1002/wcms.1327
  3. Neese, F.; Wennmohs, F.; Becker, U.; Riplinger, C.
     The ORCA quantum chemistry program package
     J. Chem. Phys. 2020 152(22), 224108
     doi.org/10.1063/5.0004608
  4. Neese, F.
     Software update: The ORCA program system—Version 5.0
     WIRES Comput. Molec. Sci. 2022 12(1), e1606
     doi.org/10.1002/wcms.1606

List of optional additional citations

  1. Neese, F.
     Approximate second-order SCF convergence for spin unrestricted wavefunctions
     Chem. Phys. Lett. 2000 325(1-3), 93-98
     doi.org/10.1016/s0009-2614(00)00662-x

Timings for individual modules:

Sum of individual times          ...        2.692 sec (=   0.045 min)
Geometry relaxation              ...        0.236 sec (=   0.004 min)   8.8 %
XTB module                       ...        2.457 sec (=   0.041 min)  91.2 %
                             ****ORCA TERMINATED NORMALLY****
TOTAL RUN TIME: 0 days 0 hours 0 minutes 3 seconds 193 msec
