
                                 *****************
                                 * O   R   C   A *
                                 *****************

                                            #,                                       
                                            ###                                      
                                            ####                                     
                                            #####                                    
                                            ######                                   
                                           ########,                                 
                                     ,,################,,,,,                         
                               ,,#################################,,                 
                          ,,##########################################,,             
                       ,#########################################, ''#####,          
                    ,#############################################,,   '####,        
                  ,##################################################,,,,####,       
                ,###########''''           ''''###############################       
              ,#####''   ,,,,##########,,,,          '''####'''          '####       
            ,##' ,,,,###########################,,,                        '##       
           ' ,,###''''                  '''############,,,                           
         ,,##''                                '''############,,,,        ,,,,,,###''
      ,#''                                            '''#######################'''  
     '                                                          ''''####''''         
             ,#######,   #######,   ,#######,      ##                                
            ,#'     '#,  ##    ##  ,#'     '#,    #''#        ,####,    ,#,          
            ##       ##  ##   ,#'  ##            #'  '#       #'       ,# #          
            ##       ##  #######   ##           ,######,      #####,      #          
            '#,     ,#'  ##    ##  '#,     ,#' ,#      #,     #,   #      #          
             '#######'   ##     ##  '#######'  #'      '#     '####' #    #          



                #########################################################
                #                        -***-                          #
                #          Department of theory and spectroscopy        #
                #                                                       #
                #                      Frank Neese                      #
                #                                                       #
                #     Directorship, Architecture, Infrastructure        #
                #                    SHARK, DRIVERS                     #
                #        Core code/Algorithms in most modules           #
                #                                                       #
                #        Max Planck Institute fuer Kohlenforschung      #
                #                Kaiser Wilhelm Platz 1                 #
                #                 D-45470 Muelheim/Ruhr                 #
                #                      Germany                          #
                #                                                       #
                #                  All rights reserved                  #
                #                        -***-                          #
                #########################################################


                         Program Version 6.1.1  -  RELEASE   -
                                (GIT: $487d211c$)
                          ($2025-11-21 10:33:24 +0100$)
                                                                         
                                  - NO-DMRG VERSION -                    
                                                                         


 With contributions from (in alphabetic order):
[Max-Planck-Institut fuer Kohlenforschung]                               
  Daniel Aravena         : Magnetic Suceptibility                        
  Michael Atanasov       : Ab Initio Ligand Field Theory (pilot matlab implementation)
  Alexander A. Auer      : GIAO ZORA, VPT2 properties, NMR spectrum      
  Ute Becker             : All parallelization in ORCA, NUMFREQ, NUMCALC 
  Giovanni Bistoni       : ED, misc. LED, open-shell LED, HFLD           
  Dmytro Bykov           : pre 5.0 version of the SCF Hessian            
  Marcos Casanova-Páez   : Triplet and SCS-CIS(D). UHF-(DLPNO)-IP/EA/STEOM-CCSD. UHF-CVS-IP/STEOM-CCSD   
  Vijay G. Chilkuri      : MRCI spin determinant printing, contributions to CSF-ICE 
  Pauline Colinet        : FMM embedding                                 
  Dipayan Datta          : RHF DLPNO-CCSD density                        
  Achintya Kumar Dutta   : EOM-CC, STEOM-CC                              
  Nicolas Foglia         : Exact transition moments, OPA infrastructure, MCD improvements    
  Dmitry Ganyushin       : Spin-Orbit,Spin-Spin,Magnetic field MRCI      
  Miquel Garcia-Rates    : C-PCM and meta-GGA Hessian, CCSD/C-PCM, Gaussian charge scheme 
  Tiago L. C. Gouveia    : GS-ROHF, GS-ROCIS                             
  Yang Guo               : DLPNO-NEVPT2, F12-NEVPT2, CIM, IAO-localization        
  Andreas Hansen         : Spin unrestricted coupled pair/coupled cluster methods 
  Ingolf Harden          : AUTO-CI MPn and infrastructure                
  Benjamin Helmich-Paris : MC-RPA, TRAH-(SCF,CASSCF), AVAS, COSX integrals, SCF dyn. polar., MC-PDFT, srDFT 
  Lee Huntington         : MR-EOM, pCC                                   
  Robert Izsak           : Overlap fitted RIJCOSX, COSX-SCS-MP3, EOM     
  Riya Kayal             : Wick's Theorem for AUTO-CI, AUTO-CI UHF-CCSDT 
  Emily Kempfer          : AUTO-CI RHF CISDT and CCSDT, approximate NEVPT4
  Christian Kollmar      : KDIIS, OOCD, Brueckner-CCSD(T), CCSD density, CASPT2, CASPT2-K, improved NEVPT2 
  Axel Koslowski         : Symmetry handling                             
  Simone Kossmann        : meta-GGA functionals, TD-DFT gradient, OOMP2, (MP2 Hessian; deprecated post 5.0) 
  Lucas Lang             : DCDCAS, Hyperfine gauge corrections, ICE-SOC+SSC
  Marvin Lechner         : AUTO-CI (C++ implementation), FIC-MRCC        
  Spencer Leger          : CASSCF response                               
  Dagmar Lenk            : GEPOL surface, SMD, ORCA-2-JSON               
  Dimitrios Liakos       : Extrapolation schemes; Compound Job, Property file
  Dimitrios Manganas     : Further ROCIS development; embedding schemes. LFT, Crystal Embedding 
  Dimitrios Pantazis     : SARC Basis sets                               
  Anastasios Papadopoulos: AUTO-CI, single reference methods and gradients 
  Taras Petrenko         : pre 6.0 DFT Hessian and TD-DFT gradient,  ECA, NRVS 
  Petra Pikulova         : Analytic Raman intensities                    
  Peter Pinski           : DLPNO-MP2, DLPNO-MP2 Gradient                 
  Shashank Vittal Rao    : ES-AILFT, MagRelax                            
  Christoph Reimann      : Effective Core Potentials                     
  Marius Retegan         : Local ZFS, SOC                                
  Christoph Riplinger    : Optimizer, TS searches, QM/MM, DLPNO-CCSD(T), (RO)-DLPNO pert. Triples 
  Michael Roemelt        : Original ROCIS implementation, recursive CI coupling coefficients
  Masaaki Saitow         : Open-shell DLPNO-CCSD energy and density      
  Barbara Sandhoefer     : DKH picture change effects                    
  Yorick L. A. Schmerwitz: GMF and freeze-and-release deltaSCF, NEB S-IDPP initial path                    
  Kantharuban Sivalingam : CASSCF convergence/infrastructure, NEVPT2, NEVPT3, NEVPT4(SD), FIC-MRCI and CEPA variants
  Bernardo de Souza      : ESD, SOC TD-DFT                               
  Georgi L. Stoychev     : AutoAux, RI-MP2 NMR, DLPNO-MP2 response, X2C  
  Van Anh Tran           : RI-MP2 g-tensors                              
  Willem Van den Heuvel  : Paramagnetic NMR                              
  Zikuan Wang            : NOTCH, Electric field optimization            
  Frank Wennmohs         : Technical directorship and infrastructure     
  Hang Xu                : AUTO-CI-Response properties                   
                                                                         
[FACCTs GmbH]                                                            
  Markus Bursch, Nicolas Foglia, Miquel Garcia-Rates, Ingolf Harden, Hagen Neugebauer, Anastasios Papadopoulos, 
  Christoph Riplinger, Bernardo de Souza, Georgi L. Stoychev                                                    
                                                                 
  APM, various basis sets, CI-OPT, improved COSX, DLPNO-Multilevel,           
  DOCKER, DRACO, updates on ESD, Fragmentator, GOAT, IRC, LR-CPCM, L-BFGS, MBIS, meta-GGA TD-DFT gradient, ML-optimized integration grids, 
  MM, NACMEs, nearIR, NEB, NEB-TS, NL-DFT gradient (VV10), 2- and 3-layer-ONIOM, interface openCOSMO-RS, QMMM,   
  Crystal-QMMM, RESP, rigid body optimization, SF, symmetry and pop. for TD-DFT, various functionals, SOLVATOR                                   
                                                                         
[Other institutions]                                                     
  V. Asgeirsson          : NEB                                           
  Christoph Bannwarth    : sTDA-DFT, sTD-DFT, PBEh-3c, B97-3c, D3        
  Giovanni Bistoni       : ETS/NOCV, ADLD/ADEX, COVALED                  
  Martin Brehm           : Molecular dynamics                            
  Ronald Cardenas        : ETS/NOCV                                      
  Martina Colucci        : COVALED                                       
  Sebastian Ehlert       : rSCAN, r2SCAN, r2SCAN-3c, D4, dhf basis sets  
  Marvin Friede          : D4 for Fr, Ra, Ac-Lr                          
  Lars Goerigk           : TD-DFT with DH, B97 family of functionals     
  Stefan Grimme          : VdW corrections, initial TS optimization, DFT functionals, gCP, sTDA/sTD-DF 
  Waldemar Hujo          : DFT-NL                                        
  H. Jonsson             : NEB                                           
  Holger Kruse           : gCP                                           
  Marcel Mueller         : wB97X-3c, vDZP basis set                      
  Hagen Neugebauer       : wr2SCAN, Native XTB                           
  Gianluca Regni         : ADLD/ADEX                                     
  Tobias Risthaus        : pre 6.0 range-separated hybrid DFT and stability analysis
  Lukas Wittmann         : regularized MP2, r2SCAN double-hybrids, wr2SCAN        
                                                                         
We gratefully acknowledge several colleagues who have allowed us to      
interface, adapt or use parts of their codes:                            
  Ed Valeev, F. Pavosevic, A. Kumar             : LibInt (2-el integral package), F12 methods 
  Garnet Chan, S. Sharma, J. Yang, R. Olivares  : DMRG                   
  Ulf Ekstrom                                   : XCFun DFT Library      
  Mihaly Kallay                                 : mrcc  (arbitrary order and MRCC methods)
  Frank Weinhold                                : gennbo (NPA and NBO analysis)           
  Simon Mueller                                 : openCOSMO-RS                            
  Christopher J. Cramer and Donald G. Truhlar   : smd solvation model                     
  S Lehtola, MJT Oliveira, MAL Marques          : LibXC Library                           
  Liviu Ungur et al                             : ANISO software                          


 Your calculation uses the libint2 library for the computation of 2-el integrals
 For citations please refer to: http://libint.valeyev.net

 Your ORCA version has been built with support for libXC version: 7.0.0
 For citations please refer to: https://libxc.gitlab.io

 This ORCA versions uses:
   CBLAS   interface :  Fast vector & matrix operations
   LAPACKE interface :  Fast linear algebra routines
   SCALAPACK package :  Parallel linear algebra routines
   Shared memory     :  Shared parallel matrices
   BLAS/LAPACK       :  OpenBLAS 0.3.29  USE64BITINT DYNAMIC_ARCH NO_AFFINITY Zen SINGLE_THREADED
        Core in use  :  Zen
   Copyright (c) 2011-2014, The OpenBLAS Project


  ***********************************
  * Starting time: Fri Apr 17 12:14:00 2026
  * Host name:     vmi3233575
  * Process ID:    330318
  * Working dir.:  /root/orca_b12_vps_pack/jobs/01_xtb/mult_1
  ***********************************

NOTE: MaxCore=500 MB was set to SCF,MP2,MDCI,CIPSI,MRCI,RASCI and CIS
      => If you want to overwrite this, your respective input block should be placed after the MaxCore statement


***************************************
The coordinates will be read from file: ../../../starts/random_d1.50_004.xyz
***************************************


Your calculation utilizes the semiempirical GFN2-xTB method
Please cite in your paper:
Bannwarth, C.; Ehlert S.; Grimme, S. J. Chem. Theory Comput. 2019, 15, 1652.
   

================================================================================

================================================================================
                                        WARNINGS
                       Please study these warnings very carefully!
================================================================================


WARNING: Geometry Optimization
  ===> : Switching off AutoStart
         For restart on a previous wavefunction, please use MOREAD

WARNING: Found dipole moment calculation with XTB calculation
  ===> : Switching off dipole moment calculation

Environment variable XTBEXE for xtb has been set!

================================================================================
                                       INPUT FILE
================================================================================
NAME = random_d1.50_004_m1.inp
|  1> ! GFN2-xTB TightSCF TightOpt
|  2> 
|  3> %pal
|  4>   nprocs 1
|  5> end
|  6> 
|  7> %maxcore 500
|  8> 
|  9> * xyzfile 0 1 ../../../starts/random_d1.50_004.xyz
| 10> 
| 11>                          ****END OF INPUT****
================================================================================

                       *****************************
                       * Geometry Optimization Run *
                       *****************************

Geometry optimization settings:
Update method            Update   .... BFGS
Choice of coordinates    CoordSys .... (2022) Redundant Internals
Initial Hessian          InHess   .... Almloef's Model
Max. no of cycles        MaxIter  .... 50

Convergence Tolerances:
Energy Change            TolE     ....  1.0000e-06 Eh
Max. Gradient            TolMAXG  ....  1.0000e-04 Eh/bohr
RMS Gradient             TolRMSG  ....  3.0000e-05 Eh/bohr
Max. Displacement        TolMAXD  ....  1.0000e-03 bohr
RMS Displacement         TolRMSD  ....  6.0000e-04 bohr
Strict Convergence                .... False

------------------------------------------------------------------------------
                        ORCA OPTIMIZATION COORDINATE SETUP
------------------------------------------------------------------------------

The optimization will be done in redundant internal coordinates (2022)
Making redundant internal coordinates   ...  (2022 redundants) done
Evaluating the initial hessian          ...  (Almloef) done
Evaluating the coordinates              ...  done
Calculating the B-matrix                .... done
Calculating the G-matrix                .... done
The number of degrees of freedom        ....  145

    -----------------------------------------------------------------
                    Redundant Internal Coordinates


    -----------------------------------------------------------------
         Definition                    Initial Value    Approx d2E/dq
    -----------------------------------------------------------------
      1. B(B   2,B   1)                  1.3139         1.108634   
      2. B(B   3,B   1)                  1.8219         0.171520   
      3. B(B   4,B   1)                  2.4593         0.016497   
      4. B(B   4,B   3)                  2.4005         0.020472   
      5. B(B   4,B   2)                  2.4164         0.019313   
      6. B(B   7,B   0)                  1.1717         1.869398   
      7. B(B   7,B   2)                  1.5982         0.390135   
      8. B(B   7,B   5)                  2.4528         0.016897   
      9. B(B   8,B   7)                  1.7064         0.262127   
     10. B(B   9,B   6)                  1.7054         0.263087   
     11. B(B   9,B   2)                  1.2834         1.240239   
     12. B(B   9,B   4)                  2.4844         0.015040   
     13. B(B  10,B   9)                  2.0390         0.077265   
     14. B(B  10,B   2)                  1.5688         0.434600   
     15. B(B  10,B   1)                  1.3324         1.035935   
     16. B(B  11,B   4)                  2.1156         0.058306   
     17. B(B  11,B   8)                  1.9437         0.109635   
     18. B(B  11,B   5)                  2.1196         0.057460   
     19. A(B   4,B   1,B  10)          116.4727         0.266975   
     20. A(B   3,B   1,B   4)           66.2792         0.207464   
     21. A(B   2,B   1,B  10)           72.7140         0.550279   
     22. A(B   2,B   1,B   3)          114.0770         0.396037   
     23. A(B   3,B   1,B  10)           82.2885         0.391360   
     24. A(B   2,B   1,B   4)           72.5728         0.269728   
     25. A(B   1,B   2,B   4)           76.1764         0.276290   
     26. A(B   7,B   2,B  10)          144.1263         0.388171   
     27. A(B   4,B   2,B  10)          108.8089         0.240518   
     28. A(B   1,B   2,B  10)           54.1860         0.467948   
     29. A(B   4,B   2,B   7)          106.9298         0.236861   
     30. A(B   1,B   2,B   9)          124.3982         0.569460   
     31. A(B   4,B   2,B   9)           77.7734         0.281106   
     32. A(B   1,B   2,B   7)          134.6085         0.458803   
     33. A(B   7,B   2,B   9)           99.7709         0.468312   
     34. A(B   9,B   2,B  10)           90.7001         0.477693   
     35. A(B   1,B   3,B   4)           69.7065         0.213396   
     36. A(B   2,B   4,B   3)           66.6255         0.164880   
     37. A(B   2,B   4,B  11)           71.0462         0.185164   
     38. A(B   1,B   4,B   2)           31.2509         0.161262   
     39. A(B   2,B   4,B   9)           30.3210         0.159766   
     40. A(B   9,B   4,B  11)           69.5258         0.179873   
     41. A(B   1,B   4,B   9)           55.3831         0.157286   
     42. A(B   3,B   4,B   9)           71.6264         0.160706   
     43. A(B   3,B   4,B  11)          137.3929         0.186441   
     44. A(B   1,B   4,B   3)           44.0144         0.162222   
     45. A(B   1,B   4,B  11)           97.9360         0.181794   
     46. A(B   7,B   5,B  11)           59.6020         0.181991   
     47. A(B   0,B   7,B   2)          108.4136         0.505226   
     48. A(B   5,B   7,B   8)           92.8347         0.220108   
     49. A(B   2,B   7,B   5)          106.7808         0.232456   
     50. A(B   0,B   7,B   5)          137.6025         0.293521   
     51. A(B   2,B   7,B   8)          108.5948         0.355821   
     52. A(B   0,B   7,B   8)           97.6357         0.469400   
     53. A(B   7,B   8,B  11)           77.4401         0.289193   
     54. A(B   2,B   9,B  10)           50.2962         0.351923   
     55. A(B   4,B   9,B  10)           92.3458         0.185853   
     56. A(B   4,B   9,B   6)          103.6568         0.216805   
     57. A(B   2,B   9,B   4)           71.9056         0.270537   
     58. A(B   2,B   9,B   6)          172.2279         0.435950   
     59. A(B   6,B   9,B  10)          137.1857         0.274103   
     60. A(B   1,B  10,B   2)           53.1000         0.462175   
     61. A(B   2,B  10,B   9)           39.0037         0.296373   
     62. A(B   1,B  10,B   9)           83.0865         0.341427   
     63. A(B   4,B  11,B   5)          129.8052         0.212080   
     64. A(B   5,B  11,B   8)           97.4703         0.230990   
     65. A(B   4,B  11,B   8)          103.2443         0.231461   
     66. D(B   7,B   2,B   1,B  10)   -133.7721         0.077798   
     67. D(B   7,B   2,B   1,B   4)    100.2832         0.077798   
     68. D(B  10,B   2,B   1,B   3)    -72.9635         0.077798   
     69. D(B   7,B   2,B   1,B   3)    153.2643         0.077798   
     70. D(B   9,B   2,B   1,B   3)    -11.3744         0.077798   
     71. D(B   9,B   2,B   1,B  10)     61.5892         0.077798   
     72. D(B   9,B   2,B   1,B   4)    -64.3555         0.077798   
     73. D(B   4,B   3,B   1,B   2)    -56.3135         0.010000   
     74. D(B   4,B   3,B   1,B  10)   -123.4253         0.010000   
     75. D(B   2,B   4,B   1,B   3)   -127.2274         0.010000   
     76. D(B  11,B   4,B   1,B   3)   -157.7012         0.010000   
     77. D(B   3,B   4,B   2,B   9)     93.3721         0.010000   
     78. D(B   3,B   4,B   1,B  10)     67.5081         0.010000   
     79. D(B   3,B   4,B   2,B  10)      6.8462         0.010000   
     80. D(B   3,B   4,B   1,B   2)    127.2274         0.010000   
     81. D(B  11,B   4,B   3,B   1)     33.7194         0.010000   
     82. D(B  11,B   4,B   2,B  10)   -168.1673         0.010000   
     83. D(B  11,B   4,B   2,B   9)    -81.6414         0.010000   
     84. D(B   9,B   4,B   3,B   1)     58.8202         0.010000   
     85. D(B   3,B   4,B   2,B   1)    -37.0652         0.010000   
     86. D(B   3,B   4,B   2,B   7)   -169.9924         0.010000   
     87. D(B   2,B   4,B   3,B   1)     26.7444         0.010000   
     88. D(B  11,B   4,B   2,B   7)     14.9942         0.010000   
     89. D(B  11,B   4,B   2,B   1)    147.9213         0.010000   
     90. D(B  11,B   4,B   1,B   2)    -30.4738         0.010000   
     91. D(B   2,B   4,B   1,B  10)    -59.7193         0.010000   
     92. D(B  11,B   4,B   1,B  10)    -90.1931         0.010000   
     93. D(B   0,B   7,B   2,B  10)    -32.1926         0.010000   
     94. D(B   0,B   7,B   2,B   9)   -137.2201         0.010000   
     95. D(B   0,B   7,B   2,B   4)    142.6964         0.010000   
     96. D(B   0,B   7,B   2,B   1)     55.5946         0.010000   
     97. D(B   8,B   7,B   5,B  11)    -42.2314         0.010000   
     98. D(B   2,B   7,B   5,B  11)     68.1579         0.010000   
     99. D(B   8,B   7,B   2,B  10)   -137.2486         0.010000   
    100. D(B   8,B   7,B   2,B   9)    117.7239         0.010000   
    101. D(B   8,B   7,B   2,B   1)    -49.4614         0.010000   
    102. D(B   0,B   7,B   5,B  11)   -146.7997         0.010000   
    103. D(B  11,B   8,B   7,B   5)     40.3671         0.010000   
    104. D(B  11,B   8,B   7,B   2)    -68.3953         0.010000   
    105. D(B  11,B   8,B   7,B   0)    179.1869         0.010000   
    106. D(B   6,B   9,B   4,B   1)    157.9640         0.010000   
    107. D(B   6,B   9,B   4,B   2)   -173.3639         0.010000   
    108. D(B   6,B   9,B   4,B   3)    111.7156         0.010000   
    109. D(B   6,B   9,B   4,B  11)    -86.1353         0.010000   
    110. D(B   2,B   9,B   4,B   1)    -28.6721         0.010000   
    111. D(B   2,B   9,B   4,B   3)    -74.9204         0.010000   
    112. D(B   2,B   9,B   4,B  11)     87.2286         0.010000   
    113. D(B  10,B   9,B   2,B   4)   -109.1033         0.100307   
    114. D(B  10,B   9,B   2,B   7)    145.5281         0.100307   
    115. D(B  10,B   9,B   2,B   1)    -45.5045         0.100307   
    116. D(B   6,B   9,B   2,B   4)     56.1378         0.100307   
    117. D(B   6,B   9,B   2,B  10)    165.2411         0.100307   
    118. D(B   6,B   9,B   2,B   7)    -49.2308         0.100307   
    119. D(B   6,B   9,B   2,B   1)    119.7366         0.100307   
    120. D(B   1,B  10,B   2,B   4)    -56.1485         0.010394   
    121. D(B   1,B  10,B   2,B   9)   -133.4641         0.010394   
    122. D(B   1,B  10,B   2,B   7)    118.6860         0.010394   
    123. D(B   9,B  10,B   1,B   4)     32.2473         0.058108   
    124. D(B   9,B  10,B   1,B   3)     90.8522         0.058108   
    125. D(B   9,B  10,B   1,B   2)    -27.3965         0.058108   
    126. D(B   2,B  10,B   1,B   4)     59.6438         0.058108   
    127. D(B   9,B  10,B   2,B   1)    133.4641         0.010394   
    128. D(B   2,B  10,B   1,B   3)    118.2488         0.058108   
    129. D(B   2,B  10,B   9,B   4)    -64.0208         0.010000   
    130. D(B   2,B  10,B   9,B   6)   -177.0944         0.010000   
    131. D(B   1,B  10,B   9,B   4)    -28.2414         0.010000   
    132. D(B   1,B  10,B   9,B   6)   -141.3150         0.010000   
    133. D(B   1,B  10,B   9,B   2)     35.7794         0.010000   
    134. D(B   9,B  10,B   2,B   4)     77.3157         0.010394   
    135. D(B   9,B  10,B   2,B   7)   -107.8499         0.010394   
    136. D(B   5,B  11,B   8,B   7)    -49.0238         0.010000   
    137. D(B   4,B  11,B   5,B   7)    -77.7380         0.010000   
    138. D(B   8,B  11,B   5,B   7)     36.4698         0.010000   
    139. D(B   5,B  11,B   4,B   2)     55.0448         0.010000   
    140. D(B   5,B  11,B   4,B   3)     48.2761         0.010000   
    141. D(B   8,B  11,B   4,B   9)    -88.8898         0.010000   
    142. D(B   8,B  11,B   4,B   1)    -40.5187         0.010000   
    143. D(B   4,B  11,B   8,B   7)     84.9368         0.010000   
    144. D(B   8,B  11,B   4,B   2)    -56.6705         0.010000   
    145. D(B   8,B  11,B   4,B   3)    -63.4392         0.010000   
    -----------------------------------------------------------------

Number of atoms                         .... 12
Number of degrees of freedom            .... 145


         *************************************************************
         *                GEOMETRY OPTIMIZATION CYCLE   1            *
         *************************************************************
---------------------------------
CARTESIAN COORDINATES (ANGSTROEM)
---------------------------------
  B    -1.211842   -2.079387   -0.351237
  B     1.427707   -0.909321    0.627140
  B     0.190112   -0.501667    0.458301
  B     2.550779    0.371895    1.272501
  B     1.504116    1.125301   -0.752188
  B    -2.326149    1.088873   -0.946110
  B    -0.935681    2.136406    1.274349
  B    -1.013163   -0.934359   -0.500411
  B    -0.431318   -1.012047   -2.102710
  B    -0.274637    0.608632    0.903572
  B     0.882763   -0.786708    1.836763
  B    -0.362686    0.892381   -1.719970

----------------------------
CARTESIAN COORDINATES (A.U.)
----------------------------
  NO LB    ZA    FRAG    MASS        X           Y           Z
   0 B   5.0000    0    10.810   -2.290049   -3.929472   -0.663742
   1 B   5.0000    0    10.810    2.697975   -1.718367    1.185123
   2 B   5.0000    0    10.810    0.359259   -0.948014    0.866064
   3 B   5.0000    0    10.810    4.820273    0.702780    2.404678
   4 B   5.0000    0    10.810    2.842366    2.126511   -1.421429
   5 B   5.0000    0    10.810   -4.395785    2.057673   -1.787889
   6 B   5.0000    0    10.810   -1.768180    4.037222    2.408170
   7 B   5.0000    0    10.810   -1.914601   -1.765682   -0.945639
   8 B   5.0000    0    10.810   -0.815072   -1.912491   -3.973546
   9 B   5.0000    0    10.810   -0.518990    1.150148    1.707503
  10 B   5.0000    0    10.810    1.668180   -1.486663    3.470980
  11 B   5.0000    0    10.810   -0.685377    1.686356   -3.250271

      -----------------------------------------------------------      
     |                   =====================                   |     
     |                           x T B                           |     
     |                   =====================                   |     
     |                         S. Grimme                         |     
     |          Mulliken Center for Theoretical Chemistry        |     
     |                    University of Bonn                     |     
      -----------------------------------------------------------      

   * xtb version 6.6.1 (unknown) compiled by 'builduser@buildhost' on 2023-08-07

   xtb is free software: you can redistribute it and/or modify it under
   the terms of the GNU Lesser General Public License as published by
   the Free Software Foundation, either version 3 of the License, or
   (at your option) any later version.
   
   xtb is distributed in the hope that it will be useful,
   but WITHOUT ANY WARRANTY; without even the implied warranty of
   MERCHANTABILITY or FITNESS FOR A PARTICULAR PURPOSE.  See the
   GNU Lesser General Public License for more details.
   
   Cite this work as:
   * C. Bannwarth, E. Caldeweyher, S. Ehlert, A. Hansen, P. Pracht,
     J. Seibert, S. Spicher, S. Grimme, WIREs Comput. Mol. Sci., 2020, 11,
     e01493. DOI: 10.1002/wcms.1493
   
   for GFN2-xTB:
   * C. Bannwarth, S. Ehlert and S. Grimme., J. Chem. Theory Comput., 2019,
     15, 1652-1671. DOI: 10.1021/acs.jctc.8b01176
   for GFN1-xTB:
   * S. Grimme, C. Bannwarth, P. Shushkov, J. Chem. Theory Comput., 2017,
     13, 1989-2009. DOI: 10.1021/acs.jctc.7b00118
   for GFN0-xTB:
   * P. Pracht, E. Caldeweyher, S. Ehlert, S. Grimme, ChemRxiv, 2019, preprint.
     DOI: 10.26434/chemrxiv.8326202.v1
   for GFN-FF:
   * S. Spicher and S. Grimme, Angew. Chem. Int. Ed., 2020, 59, 15665-15673.
     DOI: 10.1002/anie.202004239
   
   for ALPB and GBSA implicit solvation:
   * S. Ehlert, M. Stahn, S. Spicher, S. Grimme, J. Chem. Theory Comput.,
     2021, 17, 4250-4261. DOI: 10.1021/acs.jctc.1c00471
   
   for DFT-D4:
   * E. Caldeweyher, C. Bannwarth and S. Grimme, J. Chem. Phys., 2017,
     147, 034112. DOI: 10.1063/1.4993215
   * E. Caldeweyher, S. Ehlert, A. Hansen, H. Neugebauer, S. Spicher,
     C. Bannwarth and S. Grimme, J. Chem. Phys., 2019, 150, 154122.
     DOI: 10.1063/1.5090222
   * E. Caldeweyher, J.-M. Mewes, S. Ehlert and S. Grimme, Phys. Chem. Chem. Phys.
     2020, 22, 8499-8512. DOI: 10.1039/D0CP00502A
   
   for sTDA-xTB:
   * S. Grimme and C. Bannwarth, J. Chem. Phys., 2016, 145, 054103.
     DOI: 10.1063/1.4959605
   
   in the mass-spec context:
   * V. Asgeirsson, C. Bauer and S. Grimme, Chem. Sci., 2017, 8, 4879.
     DOI: 10.1039/c7sc00601b
   * J. Koopman and S. Grimme, ACS Omega 2019, 4, 12, 15120-15133.
     DOI: 10.1021/acsomega.9b02011
   
   for metadynamics refer to:
   * S. Grimme, J. Chem. Theory Comput., 2019, 155, 2847-2862
     DOI: 10.1021/acs.jctc.9b00143
   
   for SPH calculations refer to:
   * S. Spicher and S. Grimme, J. Chem. Theory Comput., 2021, 17, 1701-1714
     DOI: 10.1021/acs.jctc.0c01306
   
   with help from (in alphabetical order)
   P. Atkinson, C. Bannwarth, F. Bohle, G. Brandenburg, E. Caldeweyher
   M. Checinski, S. Dohm, S. Ehlert, S. Ehrlich, I. Gerasimov, C. Hölzer
   A. Katbashev, J. Koopman, C. Lavigne, S. Lehtola, F. März, M. Müller,
   F. Musil, H. Neugebauer, J. Pisarek, C. Plett, P. Pracht, F. Pultar,
   J. Seibert, P. Shushkov, S. Spicher, M. Stahn, M. Steiner, T. Strunk,
   J. Stückrath, T. Rose, and J. Unsleber
   
 * started run on 2026/04/17 at 12:14:01.129     

           -------------------------------------------------
          |                Calculation Setup                |
           -------------------------------------------------

          program call               : /usr/bin/xtb random_d1.50_004_m1_XTB.xyz --grad -c 0 -u 0 -P 1 --namespace random_d1.50_004_m1 --input random_d1.50_004_m1_XTB.input.tmp --acc 0.200000
          calculation namespace      : random_d1.50_004_m1
          coordinate file            : random_d1.50_004_m1_XTB.xyz
          omp threads                :                     1

   ID    Z sym.   atoms
    1    5 B      1-12

molecular fragmentation (1/2 indicates fragments):
111122111112
# atoms in fragment 1/2:     9     3
 fragment masses (1/2) :       97.30       32.43
CMA distance (Bohr)    :   4.005
constraining FC (au)   :  0.0500

           -------------------------------------------------
          |                 G F N 2 - x T B                 |
           -------------------------------------------------

        Reference                      10.1021/acs.jctc.8b01176
      * Hamiltonian:
        H0-scaling (s, p, d)           1.850000    2.230000    2.230000
        zeta-weighting                 0.500000
      * Dispersion:
        s8                             2.700000
        a1                             0.520000
        a2                             5.000000
        s9                             5.000000
      * Repulsion:
        kExp                           1.500000    1.000000
        rExp                           1.000000
      * Coulomb:
        alpha                          2.000000
        third order                    shell-resolved
        anisotropic                    true
        a3                             3.000000
        a5                             4.000000
        cn-shift                       1.200000
        cn-exp                         4.000000
        max-rad                        5.000000


          ...................................................
          :                      SETUP                      :
          :.................................................:
          :  # basis functions                  48          :
          :  # atomic orbitals                  48          :
          :  # shells                           24          :
          :  # electrons                        36          :
          :  max. iterations                   250          :
          :  Hamiltonian                  GFN2-xTB          :
          :  restarted?                      false          :
          :  GBSA solvation                  false          :
          :  PC potential                    false          :
          :  electronic temp.          300.0000000     K    :
          :  accuracy                    0.2000000          :
          :  -> integral cutoff          0.3198970E+02      :
          :  -> integral neglect         0.2000000E-08      :
          :  -> SCF convergence          0.2000000E-06 Eh   :
          :  -> wf. convergence          0.2000000E-04 e    :
          :  Broyden damping             0.4000000          :
          ...................................................

 iter      E             dE          RMSdq      gap      omega  full diag
   1    -12.4699299 -0.124699E+02  0.201E+01    0.11       0.0  T
   2      2.3962062  0.148661E+02  0.237E+01    0.37       1.0  T
   3      8.9460978  0.654989E+01  0.245E+01    0.50       1.0  T
   4     -5.1280383 -0.140741E+02  0.181E+01    0.37       1.0  T
   5     -6.6850803 -0.155704E+01  0.171E+01    0.28       1.0  T
   6     -5.3385023  0.134658E+01  0.146E+01    0.17       1.0  T
   7    -10.8422116 -0.550371E+01  0.121E+01    0.04       1.0  T
   8    -12.8452579 -0.200305E+01  0.935E+00    0.21       1.0  T
   9    -12.6452131  0.200045E+00  0.935E+00    0.19       1.0  T
  10    -12.7117063 -0.664933E-01  0.916E+00    0.17       1.0  T
  11    -12.6663049  0.454014E-01  0.928E+00    0.17       1.0  T
  12    -12.4435272  0.222778E+00  0.992E+00    0.17       1.0  T
  13    -12.5002899 -0.567627E-01  0.970E+00    0.15       1.0  T
  14    -13.0598561 -0.559566E+00  0.801E+00    0.14       1.0  T
  15    -13.2131172 -0.153261E+00  0.841E+00    0.15       1.0  T
  16    -12.6552900  0.557827E+00  0.802E+00    0.22       1.0  T
  17    -13.2194628 -0.564173E+00  0.772E+00    0.13       1.0  T
  18    -13.2187737  0.689075E-03  0.762E+00    0.12       1.0  T
  19    -13.1812187  0.375550E-01  0.786E+00    0.12       1.0  T
  20    -13.2093252 -0.281065E-01  0.645E+00    0.14       1.0  T
  21    -13.0751015  0.134224E+00  0.606E+00    0.16       1.0  T
  22    -13.2431748 -0.168073E+00  0.482E+00    0.14       1.0  T
  23    -13.6454496 -0.402275E+00  0.350E+00    0.06       1.0  T
  24    -13.6752071 -0.297575E-01  0.394E+00    0.07       1.0  T
  25    -13.6608841  0.143230E-01  0.404E+00    0.08       1.0  T
  26    -13.7028642 -0.419800E-01  0.290E+00    0.07       1.0  T
  27    -13.7367326 -0.338684E-01  0.294E+00    0.01       1.0  T
  28    -13.6530307  0.837019E-01  0.384E+00    0.05       1.0  T
  29    -13.7046905 -0.516598E-01  0.292E+00    0.04       1.0  T
  30    -13.5889974  0.115693E+00  0.377E+00    0.06       1.0  T
  31    -13.6125179 -0.235206E-01  0.353E+00    0.05       1.0  T
  32    -13.6776574 -0.651395E-01  0.268E+00    0.03       1.0  T
  33    -13.7179396 -0.402823E-01  0.204E+00    0.01       1.0  T
  34    -13.6997980  0.181416E-01  0.240E+00    0.02       1.0  T
  35    -13.7169130 -0.171150E-01  0.205E+00    0.01       1.0  T
  36    -13.7373522 -0.204392E-01  0.160E+00    0.03       1.0  T
  37    -13.7281520  0.920016E-02  0.171E+00    0.04       1.0  T
  38    -13.7307597 -0.260766E-02  0.166E+00    0.04       1.0  T
  39    -13.7401274 -0.936773E-02  0.138E+00    0.03       1.0  T
  40    -13.7422662 -0.213876E-02  0.130E+00    0.03       1.0  T
  41    -13.7453096 -0.304345E-02  0.118E+00    0.03       1.0  T
  42    -13.7454173 -0.107694E-03  0.117E+00    0.03       1.0  T
  43    -13.7453362  0.810951E-04  0.116E+00    0.03       1.0  T
  44    -13.7400420  0.529429E-02  0.121E+00    0.04       1.0  T
  45    -13.7530844 -0.130425E-01  0.744E-01    0.03       1.0  T
  46    -13.7572714 -0.418694E-02  0.510E-01    0.02       1.0  T
  47    -13.7576484 -0.377005E-03  0.428E-01    0.02       1.0  T
  48    -13.7591183 -0.146989E-02  0.293E-01    0.02       1.0  T
  49    -13.7596797 -0.561439E-03  0.186E-01    0.02       1.0  T
  50    -13.7597183 -0.385792E-04  0.170E-01    0.02       1.0  T
  51    -13.7599327 -0.214355E-03  0.106E-01    0.02       1.0  T
  52    -13.7599719 -0.392990E-04  0.861E-02    0.02       1.0  T
  53    -13.7600395 -0.675082E-04  0.371E-02    0.02       1.0  T
  54    -13.7600517 -0.122238E-04  0.216E-02    0.02       1.3  T
  55    -13.7600549 -0.320891E-05  0.112E-02    0.02       2.6  T
  56    -13.7600559 -0.102815E-05  0.443E-03    0.02       6.5  T
  57    -13.7600561 -0.137548E-06  0.296E-03    0.02       9.8  T
  58    -13.7600561 -0.112368E-07  0.258E-03    0.02      11.2  T
  59    -13.7600561 -0.675982E-07  0.103E-03    0.02      27.9  T
  60    -13.7600561 -0.409225E-09  0.846E-04    0.02      34.1  T
  61    -13.7600561 -0.230083E-08  0.593E-04    0.02      48.7  T
  62    -13.7600561 -0.101804E-08  0.330E-04    0.02      87.5  T
  63    -13.7600561 -0.369500E-10  0.306E-04    0.02      94.4  T
  64    -13.7600561 -0.225437E-10  0.251E-04    0.02     115.2  T
  65    -13.7600561 -0.295465E-09  0.115E-04    0.02     251.9  T
  66    -13.7600561 -0.351115E-10  0.750E-05    0.02     385.1  T

   *** convergence criteria satisfied after 66 iterations ***

         #    Occupation            Energy/Eh            Energy/eV
      -------------------------------------------------------------
         1        2.0000           -0.4473185             -12.1722
       ...           ...                  ...                  ...
        12        2.0000           -0.2785799              -7.5805
        13        2.0000           -0.2701749              -7.3518
        14        2.0000           -0.2546605              -6.9297
        15        2.0000           -0.2468248              -6.7164
        16        2.0000           -0.2420786              -6.5873
        17        1.9884           -0.2287288              -6.2240
        18        1.2062           -0.2242360              -6.1018 (HOMO)
        19        0.8045           -0.2234624              -6.0807 (LUMO)
        20        0.0008           -0.2164493              -5.8899
        21        0.0000           -0.2132032              -5.8016
        22                         -0.2016391              -5.4869
        23                         -0.1899543              -5.1689
       ...                                ...                  ...
        48                          3.9167173             106.5793
      -------------------------------------------------------------
                  HL-Gap            0.0007736 Eh            0.0211 eV
             Fermi-level           -0.2238386 Eh           -6.0910 eV

 SCC (total)                   0 d,  0 h,  0 min,  0.090 sec
 SCC setup                      ...        0 min,  0.000 sec (  0.179%)
 Dispersion                     ...        0 min,  0.000 sec (  0.113%)
 classical contributions        ...        0 min,  0.000 sec (  0.038%)
 integral evaluation            ...        0 min,  0.004 sec (  4.497%)
 iterations                     ...        0 min,  0.080 sec ( 89.405%)
 molecular gradient             ...        0 min,  0.005 sec (  5.487%)
 printout                       ...        0 min,  0.000 sec (  0.254%)

         :::::::::::::::::::::::::::::::::::::::::::::::::::::
         ::                     SUMMARY                     ::
         :::::::::::::::::::::::::::::::::::::::::::::::::::::
         :: total energy             -13.162423191717 Eh    ::
         :: gradient norm              1.321361698371 Eh/a0 ::
         :: HOMO-LUMO gap              0.021051416262 eV    ::
         ::.................................................::
         :: SCC energy               -13.760056139499 Eh    ::
         :: -> isotropic ES            0.053030029792 Eh    ::
         :: -> anisotropic ES          0.000879900340 Eh    ::
         :: -> anisotropic XC         -0.025866252581 Eh    ::
         :: -> dispersion             -0.018775230434 Eh    ::
         :: repulsion energy           0.597594281836 Eh    ::
         :: add. restraining           0.000000000000 Eh    ::
         :: total charge              -0.000000000000 e     ::
         :::::::::::::::::::::::::::::::::::::::::::::::::::::


Property printout bound to 'properties.out'

           -------------------------------------------------
          | TOTAL ENERGY              -13.162423191717 Eh   |
          | GRADIENT NORM               1.321361698371 Eh/α |
          | HOMO-LUMO GAP               0.021051416262 eV   |
           -------------------------------------------------

------------------------------------------------------------------------
 * finished run on 2026/04/17 at 12:14:01.238     
------------------------------------------------------------------------
 total:
 * wall-time:     0 d,  0 h,  0 min,  0.109 sec
 *  cpu-time:     0 d,  0 h,  0 min,  0.109 sec
 * ratio c/w:     0.999 speedup
 SCF:
 * wall-time:     0 d,  0 h,  0 min,  0.090 sec
 *  cpu-time:     0 d,  0 h,  0 min,  0.090 sec
 * ratio c/w:     1.000 speedup


-------------------------   --------------------
FINAL SINGLE POINT ENERGY       -13.162423191720
-------------------------   --------------------


-------------
DIPOLE MOMENT
-------------
                                X             Y             Z
Total Dipole Moment    :      0.92600      -1.63500       0.11400
                        -----------------------------------------
Magnitude (a.u.)       :      1.88247
Magnitude (Debye)      :      4.78486


------------------
CARTESIAN GRADIENT
------------------

   1   B   :    0.129954759    0.733764789   -0.065080832
   2   B   :   -0.441566214    0.100579662    0.148920884
   3   B   :    0.177628689    0.213680911    0.205383304
   4   B   :    0.053353476    0.014309367    0.055009306
   5   B   :    0.045802297    0.024040735   -0.032690988
   6   B   :   -0.070563426   -0.000753900    0.004239208
   7   B   :   -0.014970525    0.067879937    0.032410742
   8   B   :   -0.097818941   -0.716613216    0.122638540
   9   B   :    0.014460306   -0.052944098   -0.041804101
  10   B   :    0.146718773   -0.399728045   -0.165329021
  11   B   :    0.061281880   -0.032171552   -0.245140030
  12   B   :   -0.004281074    0.047955409   -0.018557012

Difference to translation invariance:
           :   -0.0000000000    0.0000000000   -0.0000000000

Difference to rotation invariance:
           :   -0.0000000168    0.0000000291   -0.0000000107

Norm of the Cartesian gradient     ...    1.3213616984
RMS gradient                       ...    0.2202269497
MAX gradient                       ...    0.7337647890
------------------------------------------------------------------------------
                         ORCA GEOMETRY RELAXATION STEP
------------------------------------------------------------------------------

Reading the OPT-File                    .... done
Getting information on internals        .... done
Copying old internal coords+grads       .... done
Making the new internal coordinates     .... (2022 redundants) done
Validating the new internal coordinates .... (2022 redundants) done
Calculating the B-matrix                .... done
Calculating the G,G- and P matrices     .... done
Transforming gradient to internals      .... done
Projecting the internal gradient        .... done
Number of atoms                         ....  12
Number of internal coordinates          .... 145
Current Energy                          ....   -13.162423192 Eh
Current gradient norm                   ....     1.321361698 Eh/bohr
Maximum allowed component of the step   ....  0.300
Current trust radius                    ....  0.300
Evaluating the initial hessian          ....  (Almloef) done
Projecting the Hessian                  .... done
Forming the augmented Hessian           .... done
Diagonalizing the augmented Hessian     .... done
Last element of RFO vector              ....  0.870908727
Lowest eigenvalues of augmented Hessian:
 -0.434544873  0.015781571  0.027895714  0.033258502  0.036790805
Length of the computed step             ....  0.564289670
Warning: the length of the step is outside the trust region - taking restricted step instead
The input lambda is                     ....     0.014735
   iter:   5  x=   -0.023380  g=  182.755433 f(x)=     4.410244
   iter:  10  x=   -1.135059  g=    0.270883 f(x)=     0.113682
   iter:  15  x=   -1.546088  g=    0.068639 f(x)=     0.000000
The output lambda is                    ....    -1.546088 (16 iterations)
The final length of the internal step   ....  0.300000000
Converting the step to Cartesian space:
 Initial RMS(Int)=    0.0249136440
Transforming coordinates:
 Iter   0:  RMS(Cart)=    0.0466667321 RMS(Int)=    0.0248935857
 Iter   5:  RMS(Cart)=    0.0000000236 RMS(Int)=    0.0000000126
done
Storing new coordinates                 .... done

                                .--------------------.
          ----------------------|Geometry convergence|-------------------------
          Item                value                   Tolerance       Converged
          ---------------------------------------------------------------------
          RMS gradient        0.0717626935            0.0000300000      NO
          MAX gradient        0.7474010298            0.0001000000      NO
          RMS step            0.0249136440            0.0006000000      NO
          MAX step            0.2188271545            0.0010000000      NO
          -------------------------------------------------------------------------
          ........................................................
          Max(Bonds)      0.1158      Max(Angles)    1.65
          Max(Dihed)        1.75      Max(Improp)    0.00
          ---------------------------------------------------------------------

The optimization has not yet converged - more geometry cycles are needed


    ---------------------------------------------------------------------------
                         Redundant Internal Coordinates
                            (Angstroem and degrees)

        Definition                    Value    dE/dq     Step     New-Value
    ----------------------------------------------------------------------------
     1. B(B   2,B   1)                1.3139 -0.157924  0.0387    1.3526   
     2. B(B   3,B   1)                1.8219  0.040367 -0.0129    1.8090   
     3. B(B   4,B   1)                2.4593  0.002594 -0.0014    2.4579   
     4. B(B   4,B   3)                2.4005  0.038480 -0.0124    2.3881   
     5. B(B   4,B   2)                2.4164  0.001592 -0.0013    2.4150   
     6. B(B   7,B   0)                1.1717 -0.747401  0.1158    1.2875   
     7. B(B   7,B   2)                1.5982 -0.019229  0.0059    1.6041   
     8. B(B   7,B   5)                2.4528  0.021935 -0.0074    2.4453   
     9. B(B   8,B   7)                1.7064  0.032977 -0.0096    1.6968   
    10. B(B   9,B   6)                1.7054  0.073657 -0.0215    1.6839   
    11. B(B   9,B   2)                1.2834 -0.186219  0.0443    1.3276   
    12. B(B   9,B   4)                2.4844 -0.047886  0.0108    2.4952   
    13. B(B  10,B   9)                2.0390 -0.128336  0.0317    2.0706   
    14. B(B  10,B   2)                1.5688 -0.105208  0.0253    1.5941   
    15. B(B  10,B   1)                1.3324 -0.152950  0.0356    1.3680   
    16. B(B  11,B   4)                2.1156  0.042319 -0.0145    2.1011   
    17. B(B  11,B   8)                1.9437  0.022783 -0.0086    1.9352   
    18. B(B  11,B   5)                2.1196  0.044885 -0.0148    2.1048   
    19. A(B   4,B   1,B  10)          116.47  0.050729   -1.32    115.16   
    20. A(B   3,B   1,B   4)           66.28  0.007003   -0.23     66.05   
    21. A(B   2,B   1,B  10)           72.71  0.039255   -1.01     71.70   
    22. A(B   2,B   1,B   3)          114.08  0.020903   -0.60    113.48   
    23. A(B   3,B   1,B  10)           82.29  0.007937   -0.19     82.10   
    24. A(B   2,B   1,B   4)           72.57  0.015391   -0.42     72.15   
    25. A(B   1,B   2,B   4)           76.18  0.020486   -0.54     75.64   
    26. A(B   7,B   2,B  10)          144.13 -0.017748    0.54    144.67   
    27. A(B   4,B   2,B  10)          108.81  0.023595   -0.65    108.16   
    28. A(B   1,B   2,B  10)           54.19 -0.018077    0.41     54.59   
    29. A(B   4,B   2,B   7)          106.93 -0.007173    0.14    107.07   
    30. A(B   1,B   2,B   9)          124.40  0.022162   -0.55    123.84   
    31. A(B   4,B   2,B   9)           77.77  0.003720   -0.08     77.69   
    32. A(B   1,B   2,B   7)          134.61  0.003687   -0.02    134.59   
    33. A(B   7,B   2,B   9)           99.77 -0.022354    0.47    100.24   
    34. A(B   9,B   2,B  10)           90.70  0.038793   -0.94     89.76   
    35. A(B   1,B   3,B   4)           69.71 -0.013108    0.44     70.14   
    36. A(B   2,B   4,B   3)           66.63 -0.019994    0.50     67.12   
    37. A(B   2,B   4,B  11)           71.05  0.003655   -0.06     70.98   
    38. A(B   1,B   4,B   2)           31.25 -0.035877    0.96     32.21   
    39. A(B   2,B   4,B   9)           30.32 -0.038471    1.00     31.32   
    40. A(B   9,B   4,B  11)           69.53 -0.007040    0.18     69.70   
    41. A(B   1,B   4,B   9)           55.38 -0.062259    1.65     57.03   
    42. A(B   3,B   4,B   9)           71.63 -0.023130    0.60     72.23   
    43. A(B   3,B   4,B  11)          137.39 -0.017172    0.45    137.85   
    44. A(B   1,B   4,B   3)           44.01  0.006105   -0.21     43.81   
    45. A(B   1,B   4,B  11)           97.94 -0.026593    0.76     98.70   
    46. A(B   7,B   5,B  11)           59.60 -0.012143    0.38     59.98   
    47. A(B   0,B   7,B   2)          108.41 -0.034474    1.05    109.47   
    48. A(B   5,B   7,B   8)           92.83  0.007455   -0.26     92.58   
    49. A(B   2,B   7,B   5)          106.78  0.035772   -1.14    105.64   
    50. A(B   0,B   7,B   5)          137.60 -0.007690    0.31    137.91   
    51. A(B   2,B   7,B   8)          108.59  0.006964   -0.19    108.41   
    52. A(B   0,B   7,B   8)           97.64 -0.000679   -0.01     97.63   
    53. A(B   7,B   8,B  11)           77.44 -0.018202    0.57     78.01   
    54. A(B   2,B   9,B  10)           50.30 -0.003197    0.05     50.35   
    55. A(B   4,B   9,B  10)           92.35  0.032968   -0.91     91.43   
    56. A(B   4,B   9,B   6)          103.66 -0.023525    0.59    104.25   
    57. A(B   2,B   9,B   4)           71.91  0.034750   -0.91     70.99   
    58. A(B   2,B   9,B   6)          172.23  0.020805   -0.59    171.63   
    59. A(B   6,B   9,B  10)          137.19 -0.016540    0.51    137.70   
    60. A(B   1,B  10,B   2)           53.10 -0.021178    0.60     53.70   
    61. A(B   2,B  10,B   9)           39.00 -0.035596    0.89     39.89   
    62. A(B   1,B  10,B   9)           83.09 -0.045837    1.21     84.30   
    63. A(B   4,B  11,B   5)          129.81  0.011380   -0.43    129.37   
    64. A(B   5,B  11,B   8)           97.47  0.002303   -0.01     97.46   
    65. A(B   4,B  11,B   8)          103.24 -0.016852    0.60    103.84   
    66. D(B   7,B   2,B   1,B  10)   -133.77  0.037346   -1.04   -134.81   
    67. D(B   7,B   2,B   1,B   4)    100.28  0.009272   -0.32     99.96   
    68. D(B  10,B   2,B   1,B   3)    -72.96 -0.021859    0.51    -72.45   
    69. D(B   7,B   2,B   1,B   3)    153.26  0.015486   -0.53    152.74   
    70. D(B   9,B   2,B   1,B   3)    -11.37 -0.003465    0.05    -11.32   
    71. D(B   9,B   2,B   1,B  10)     61.59  0.018394   -0.46     61.13   
    72. D(B   9,B   2,B   1,B   4)    -64.36 -0.009679    0.26    -64.10   
    73. D(B   4,B   3,B   1,B   2)    -56.31 -0.009661    0.28    -56.04   
    74. D(B   4,B   3,B   1,B  10)   -123.43 -0.051917    1.34   -122.09   
    75. D(B   2,B   4,B   1,B   3)   -127.23 -0.010176    0.28   -126.94   
    76. D(B  11,B   4,B   1,B   3)   -157.70 -0.005817    0.20   -157.50   
    77. D(B   3,B   4,B   2,B   9)     93.37  0.007838   -0.16     93.21   
    78. D(B   3,B   4,B   1,B  10)     67.51 -0.019150    0.48     67.99   
    79. D(B   3,B   4,B   2,B  10)      6.85 -0.029877    0.73      7.58   
    80. D(B   3,B   4,B   1,B   2)    127.23  0.010176   -0.28    126.94   
    81. D(B  11,B   4,B   3,B   1)     33.72 -0.019452    0.58     34.30   
    82. D(B  11,B   4,B   2,B  10)   -168.17 -0.021310    0.53   -167.63   
    83. D(B  11,B   4,B   2,B   9)    -81.64  0.016405   -0.36    -82.00   
    84. D(B   9,B   4,B   3,B   1)     58.82 -0.066033    1.75     60.57   
    85. D(B   3,B   4,B   2,B   1)    -37.07 -0.005460    0.16    -36.91   
    86. D(B   3,B   4,B   2,B   7)   -169.99 -0.013526    0.29   -169.71   
    87. D(B   2,B   4,B   3,B   1)     26.74 -0.029334    0.80     27.55   
    88. D(B  11,B   4,B   2,B   7)     14.99 -0.004960    0.09     15.08   
    89. D(B  11,B   4,B   2,B   1)    147.92  0.003106   -0.04    147.88   
    90. D(B  11,B   4,B   1,B   2)    -30.47  0.004359   -0.09    -30.56   
    91. D(B   2,B   4,B   1,B  10)    -59.72 -0.029326    0.77    -58.95   
    92. D(B  11,B   4,B   1,B  10)    -90.19 -0.024967    0.68    -89.51   
    93. D(B   0,B   7,B   2,B  10)    -32.19  0.029737   -0.83    -33.02   
    94. D(B   0,B   7,B   2,B   9)   -137.22  0.002982   -0.13   -137.36   
    95. D(B   0,B   7,B   2,B   4)    142.70  0.006174   -0.19    142.50   
    96. D(B   0,B   7,B   2,B   1)     55.59 -0.017037    0.45     56.04   
    97. D(B   8,B   7,B   5,B  11)    -42.23 -0.012683    0.44    -41.80   
    98. D(B   2,B   7,B   5,B  11)     68.16  0.003116   -0.04     68.12   
    99. D(B   8,B   7,B   2,B  10)   -137.25  0.042579   -1.20   -138.45   
   100. D(B   8,B   7,B   2,B   9)    117.72  0.015823   -0.50    117.22   
   101. D(B   8,B   7,B   2,B   1)    -49.46 -0.004195    0.08    -49.38   
   102. D(B   0,B   7,B   5,B  11)   -146.80 -0.017600    0.64   -146.16   
   103. D(B  11,B   8,B   7,B   5)     40.37  0.013522   -0.45     39.91   
   104. D(B  11,B   8,B   7,B   2)    -68.40 -0.028623    0.89    -67.51   
   105. D(B  11,B   8,B   7,B   0)    179.19  0.007352   -0.20    178.98   
   106. D(B   6,B   9,B   4,B   1)    157.96 -0.004185    0.15    158.11   
   107. D(B   6,B   9,B   4,B   2)   -173.36 -0.019211    0.55   -172.82   
   108. D(B   6,B   9,B   4,B   3)    111.72 -0.013937    0.45    112.17   
   109. D(B   6,B   9,B   4,B  11)    -86.14  0.011227   -0.17    -86.31   
   110. D(B   2,B   9,B   4,B   1)    -28.67  0.015026   -0.40    -29.07   
   111. D(B   2,B   9,B   4,B   3)    -74.92  0.005274   -0.09    -75.01   
   112. D(B   2,B   9,B   4,B  11)     87.23  0.030438   -0.72     86.51   
   113. D(B  10,B   9,B   2,B   4)   -109.10 -0.015224    0.44   -108.66   
   114. D(B  10,B   9,B   2,B   7)    145.53 -0.012243    0.40    145.92   
   115. D(B  10,B   9,B   2,B   1)    -45.50  0.002667   -0.03    -45.54   
   116. D(B   6,B   9,B   2,B   4)     56.14 -0.010400    0.28     56.42   
   117. D(B   6,B   9,B   2,B  10)    165.24  0.004824   -0.16    165.08   
   118. D(B   6,B   9,B   2,B   7)    -49.23 -0.007419    0.24    -48.99   
   119. D(B   6,B   9,B   2,B   1)    119.74  0.007490   -0.19    119.54   
   120. D(B   1,B  10,B   2,B   4)    -56.15  0.010850   -0.25    -56.40   
   121. D(B   1,B  10,B   2,B   9)   -133.46 -0.005011    0.12   -133.34   
   122. D(B   1,B  10,B   2,B   7)    118.69 -0.013890    0.42    119.10   
   123. D(B   9,B  10,B   1,B   4)     32.25  0.038988   -1.01     31.24   
   124. D(B   9,B  10,B   1,B   3)     90.85  0.029277   -0.81     90.04   
   125. D(B   9,B  10,B   1,B   2)    -27.40  0.022360   -0.55    -27.95   
   126. D(B   2,B  10,B   1,B   4)     59.64  0.016628   -0.46     59.19   
   127. D(B   9,B  10,B   2,B   1)    133.46  0.005011   -0.12    133.34   
   128. D(B   2,B  10,B   1,B   3)    118.25  0.006917   -0.25    118.00   
   129. D(B   2,B  10,B   9,B   4)    -64.02 -0.015252    0.37    -63.65   
   130. D(B   2,B  10,B   9,B   6)   -177.09 -0.009572    0.28   -176.81   
   131. D(B   1,B  10,B   9,B   4)    -28.24 -0.026129    0.68    -27.56   
   132. D(B   1,B  10,B   9,B   6)   -141.31 -0.020449    0.58   -140.73   
   133. D(B   1,B  10,B   9,B   2)     35.78 -0.010876    0.30     36.08   
   134. D(B   9,B  10,B   2,B   4)     77.32  0.015861   -0.37     76.94   
   135. D(B   9,B  10,B   2,B   7)   -107.85 -0.008879    0.29   -107.56   
   136. D(B   5,B  11,B   8,B   7)    -49.02 -0.010783    0.34    -48.68   
   137. D(B   4,B  11,B   5,B   7)    -77.74  0.028725   -1.00    -78.74   
   138. D(B   8,B  11,B   5,B   7)     36.47  0.013251   -0.40     36.07   
   139. D(B   5,B  11,B   4,B   2)     55.04 -0.011086    0.45     55.49   
   140. D(B   5,B  11,B   4,B   3)     48.28 -0.019498    0.64     48.91   
   141. D(B   8,B  11,B   4,B   9)    -88.89  0.036981   -0.94    -89.83   
   142. D(B   8,B  11,B   4,B   1)    -40.52 -0.023968    0.64    -39.88   
   143. D(B   4,B  11,B   8,B   7)     84.94 -0.004049    0.10     85.04   
   144. D(B   8,B  11,B   4,B   2)    -56.67 -0.004336    0.13    -56.54   
   145. D(B   8,B  11,B   4,B   3)    -63.44 -0.012748    0.32    -63.12   
    ----------------------------------------------------------------------------

Geometry step timings:
Preparation and reading OPT file:      0.000 s ( 0.693 %)
Internal coordinates            :      0.000 s ( 0.681 %)
B/P matrices and projection     :      0.001 s (15.678 %)
Hessian update/contruction      :      0.001 s ( 9.934 %)
Making the step                 :      0.004 s (44.072 %)
Converting the step to Cartesian:      0.000 s ( 2.937 %)
Storing new data                :      0.000 s ( 0.896 %)
Checking convergence            :      0.000 s ( 0.704 %)
Final printing                  :      0.002 s (24.370 %)
Total time                      :      0.008 s

Time for energy+gradient        :      0.125 s
Time for complete geometry iter :      0.136 s

         *************************************************************
         *                GEOMETRY OPTIMIZATION CYCLE   2            *
         *************************************************************
---------------------------------
CARTESIAN COORDINATES (ANGSTROEM)
---------------------------------
  B    -1.252878   -2.195089   -0.369512
  B     1.461131   -0.912994    0.622046
  B     0.183529   -0.501607    0.452773
  B     2.555369    0.378533    1.259980
  B     1.501327    1.127377   -0.747910
  B    -2.295740    1.106128   -0.938881
  B    -0.940956    2.158842    1.277455
  B    -1.021097   -0.936810   -0.513006
  B    -0.436905   -0.995554   -2.104961
  B    -0.291631    0.646900    0.919776
  B     0.887994   -0.773510    1.856475
  B    -0.350143    0.897783   -1.714236

----------------------------
CARTESIAN COORDINATES (A.U.)
----------------------------
  NO LB    ZA    FRAG    MASS        X           Y           Z
   0 B   5.0000    0    10.810   -2.367597   -4.148117   -0.698277
   1 B   5.0000    0    10.810    2.761137   -1.725308    1.175497
   2 B   5.0000    0    10.810    0.346819   -0.947901    0.855618
   3 B   5.0000    0    10.810    4.828947    0.715324    2.381018
   4 B   5.0000    0    10.810    2.837098    2.130434   -1.413344
   5 B   5.0000    0    10.810   -4.338320    2.090279   -1.774228
   6 B   5.0000    0    10.810   -1.778148    4.079620    2.414040
   7 B   5.0000    0    10.810   -1.929594   -1.770314   -0.969441
   8 B   5.0000    0    10.810   -0.825630   -1.881324   -3.977799
   9 B   5.0000    0    10.810   -0.551102    1.222465    1.738124
  10 B   5.0000    0    10.810    1.678066   -1.461723    3.508230
  11 B   5.0000    0    10.810   -0.661674    1.696564   -3.239437

      -----------------------------------------------------------      
     |                   =====================                   |     
     |                           x T B                           |     
     |                   =====================                   |     
     |                         S. Grimme                         |     
     |          Mulliken Center for Theoretical Chemistry        |     
     |                    University of Bonn                     |     
      -----------------------------------------------------------      

   * xtb version 6.6.1 (unknown) compiled by 'builduser@buildhost' on 2023-08-07

   xtb is free software: you can redistribute it and/or modify it under
   the terms of the GNU Lesser General Public License as published by
   the Free Software Foundation, either version 3 of the License, or
   (at your option) any later version.
   
   xtb is distributed in the hope that it will be useful,
   but WITHOUT ANY WARRANTY; without even the implied warranty of
   MERCHANTABILITY or FITNESS FOR A PARTICULAR PURPOSE.  See the
   GNU Lesser General Public License for more details.
   
   Cite this work as:
   * C. Bannwarth, E. Caldeweyher, S. Ehlert, A. Hansen, P. Pracht,
     J. Seibert, S. Spicher, S. Grimme, WIREs Comput. Mol. Sci., 2020, 11,
     e01493. DOI: 10.1002/wcms.1493
   
   for GFN2-xTB:
   * C. Bannwarth, S. Ehlert and S. Grimme., J. Chem. Theory Comput., 2019,
     15, 1652-1671. DOI: 10.1021/acs.jctc.8b01176
   for GFN1-xTB:
   * S. Grimme, C. Bannwarth, P. Shushkov, J. Chem. Theory Comput., 2017,
     13, 1989-2009. DOI: 10.1021/acs.jctc.7b00118
   for GFN0-xTB:
   * P. Pracht, E. Caldeweyher, S. Ehlert, S. Grimme, ChemRxiv, 2019, preprint.
     DOI: 10.26434/chemrxiv.8326202.v1
   for GFN-FF:
   * S. Spicher and S. Grimme, Angew. Chem. Int. Ed., 2020, 59, 15665-15673.
     DOI: 10.1002/anie.202004239
   
   for ALPB and GBSA implicit solvation:
   * S. Ehlert, M. Stahn, S. Spicher, S. Grimme, J. Chem. Theory Comput.,
     2021, 17, 4250-4261. DOI: 10.1021/acs.jctc.1c00471
   
   for DFT-D4:
   * E. Caldeweyher, C. Bannwarth and S. Grimme, J. Chem. Phys., 2017,
     147, 034112. DOI: 10.1063/1.4993215
   * E. Caldeweyher, S. Ehlert, A. Hansen, H. Neugebauer, S. Spicher,
     C. Bannwarth and S. Grimme, J. Chem. Phys., 2019, 150, 154122.
     DOI: 10.1063/1.5090222
   * E. Caldeweyher, J.-M. Mewes, S. Ehlert and S. Grimme, Phys. Chem. Chem. Phys.
     2020, 22, 8499-8512. DOI: 10.1039/D0CP00502A
   
   for sTDA-xTB:
   * S. Grimme and C. Bannwarth, J. Chem. Phys., 2016, 145, 054103.
     DOI: 10.1063/1.4959605
   
   in the mass-spec context:
   * V. Asgeirsson, C. Bauer and S. Grimme, Chem. Sci., 2017, 8, 4879.
     DOI: 10.1039/c7sc00601b
   * J. Koopman and S. Grimme, ACS Omega 2019, 4, 12, 15120-15133.
     DOI: 10.1021/acsomega.9b02011
   
   for metadynamics refer to:
   * S. Grimme, J. Chem. Theory Comput., 2019, 155, 2847-2862
     DOI: 10.1021/acs.jctc.9b00143
   
   for SPH calculations refer to:
   * S. Spicher and S. Grimme, J. Chem. Theory Comput., 2021, 17, 1701-1714
     DOI: 10.1021/acs.jctc.0c01306
   
   with help from (in alphabetical order)
   P. Atkinson, C. Bannwarth, F. Bohle, G. Brandenburg, E. Caldeweyher
   M. Checinski, S. Dohm, S. Ehlert, S. Ehrlich, I. Gerasimov, C. Hölzer
   A. Katbashev, J. Koopman, C. Lavigne, S. Lehtola, F. März, M. Müller,
   F. Musil, H. Neugebauer, J. Pisarek, C. Plett, P. Pracht, F. Pultar,
   J. Seibert, P. Shushkov, S. Spicher, M. Stahn, M. Steiner, T. Strunk,
   J. Stückrath, T. Rose, and J. Unsleber
   
 * started run on 2026/04/17 at 12:14:01.265     

           -------------------------------------------------
          |                Calculation Setup                |
           -------------------------------------------------

          program call               : /usr/bin/xtb random_d1.50_004_m1_XTB.xyz --grad -c 0 -u 0 -P 1 --namespace random_d1.50_004_m1 --input random_d1.50_004_m1_XTB.input.tmp --acc 0.200000
          calculation namespace      : random_d1.50_004_m1
          coordinate file            : random_d1.50_004_m1_XTB.xyz
          omp threads                :                     1

   ID    Z sym.   atoms
    1    5 B      1-12

           -------------------------------------------------
          |                 G F N 2 - x T B                 |
           -------------------------------------------------

        Reference                      10.1021/acs.jctc.8b01176
      * Hamiltonian:
        H0-scaling (s, p, d)           1.850000    2.230000    2.230000
        zeta-weighting                 0.500000
      * Dispersion:
        s8                             2.700000
        a1                             0.520000
        a2                             5.000000
        s9                             5.000000
      * Repulsion:
        kExp                           1.500000    1.000000
        rExp                           1.000000
      * Coulomb:
        alpha                          2.000000
        third order                    shell-resolved
        anisotropic                    true
        a3                             3.000000
        a5                             4.000000
        cn-shift                       1.200000
        cn-exp                         4.000000
        max-rad                        5.000000

q/qsh data taken from xtbrestart
CAMM data taken from xtbrestart

          ...................................................
          :                      SETUP                      :
          :.................................................:
          :  # basis functions                  48          :
          :  # atomic orbitals                  48          :
          :  # shells                           24          :
          :  # electrons                        36          :
          :  max. iterations                   250          :
          :  Hamiltonian                  GFN2-xTB          :
          :  restarted?                       true          :
          :  GBSA solvation                  false          :
          :  PC potential                    false          :
          :  electronic temp.          300.0000000     K    :
          :  accuracy                    0.2000000          :
          :  -> integral cutoff          0.3198970E+02      :
          :  -> integral neglect         0.2000000E-08      :
          :  -> SCF convergence          0.2000000E-06 Eh   :
          :  -> wf. convergence          0.2000000E-04 e    :
          :  Broyden damping             0.4000000          :
          ...................................................

 iter      E             dE          RMSdq      gap      omega  full diag
   1    -13.5314625 -0.135315E+02  0.430E+00    0.08       0.0  T
   2     -6.7267005  0.680476E+01  0.144E+01    0.04       1.0  T
   3    -12.2400734 -0.551337E+01  0.810E+00    0.07       1.0  T
   4    -11.6709889  0.569084E+00  0.883E+00    0.06       1.0  T
   5    -12.7337859 -0.106280E+01  0.669E+00    0.06       1.0  T
   6    -12.2707628  0.463023E+00  0.751E+00    0.37       1.0  T
   7    -13.4699649 -0.119920E+01  0.411E+00    0.03       1.0  T
   8    -13.4393465  0.306184E-01  0.432E+00    0.10       1.0  T
   9    -13.4738003 -0.344538E-01  0.369E+00    0.06       1.0  T
  10    -13.3627134  0.111087E+00  0.462E+00    0.08       1.0  T
  11    -13.6136081 -0.250895E+00  0.220E+00    0.04       1.0  T
  12    -13.6420099 -0.284018E-01  0.245E+00    0.05       1.0  T
  13    -13.6485963 -0.658644E-02  0.228E+00    0.05       1.0  T
  14    -13.6290806  0.195157E-01  0.248E+00    0.05       1.0  T
  15    -13.6197575  0.932315E-02  0.257E+00    0.06       1.0  T
  16    -13.6260867 -0.632917E-02  0.251E+00    0.06       1.0  T
  17    -13.6276114 -0.152472E-02  0.254E+00    0.06       1.0  T
  18    -13.6533190 -0.257077E-01  0.234E+00    0.06       1.0  T
  19    -13.6848676 -0.315486E-01  0.215E+00    0.05       1.0  T
  20    -13.7057198 -0.208522E-01  0.196E+00    0.04       1.0  T
  21    -13.6979913  0.772848E-02  0.188E+00    0.02       1.0  T
  22    -13.6803869  0.176044E-01  0.211E+00    0.03       1.0  T
  23    -13.7203824 -0.399955E-01  0.117E+00    0.01       1.0  T
  24    -13.7207083 -0.325889E-03  0.118E+00    0.01       1.0  T
  25    -13.7127577  0.795056E-02  0.143E+00    0.01       1.0  T
  26    -13.7119342  0.823490E-03  0.143E+00    0.01       1.0  T
  27    -13.7164394 -0.450519E-02  0.124E+00    0.00       1.0  T
  28    -13.7202214 -0.378195E-02  0.112E+00    0.01       1.0  T
  29    -13.7211333 -0.911953E-03  0.110E+00    0.01       1.0  T
  30    -13.7223613 -0.122795E-02  0.105E+00    0.01       1.0  T
  31    -13.7273865 -0.502524E-02  0.764E-01    0.01       1.0  T
  32    -13.7278765 -0.490054E-03  0.724E-01    0.01       1.0  T
  33    -13.7308888 -0.301225E-02  0.453E-01    0.00       1.0  T
  34    -13.7317277 -0.838889E-03  0.366E-01    0.01       1.0  T
  35    -13.7327578 -0.103009E-02  0.226E-01    0.01       1.0  T
  36    -13.7330565 -0.298754E-03  0.156E-01    0.01       1.0  T
  37    -13.7332185 -0.162013E-03  0.847E-02    0.01       1.0  T
  38    -13.7332696 -0.510633E-04  0.346E-02    0.01       1.0  T
  39    -13.7332638  0.582803E-05  0.395E-02    0.01       1.0  T
  40    -13.7332698 -0.599706E-05  0.301E-02    0.01       1.0  T
  41    -13.7332751 -0.538083E-05  0.200E-02    0.01       1.4  T
  42    -13.7332761 -0.922149E-06  0.165E-02    0.01       1.8  T
  43    -13.7332791 -0.301595E-05  0.683E-03    0.01       4.2  T
  44    -13.7332795 -0.435887E-06  0.313E-03    0.01       9.2  T
  45    -13.7332796 -0.818575E-07  0.170E-03    0.01      17.0  T
  46    -13.7332796 -0.320643E-07  0.452E-04    0.01      63.9  T
  47    -13.7332796  0.222222E-09  0.417E-04    0.01      69.2  T
  48    -13.7332796 -0.936547E-09  0.291E-04    0.01      99.2  T
  49    -13.7332796 -0.976422E-09  0.614E-05    0.01     470.0  T
  50    -13.7332796  0.145643E-10  0.660E-05    0.01     437.7  T

   *** convergence criteria satisfied after 50 iterations ***

         #    Occupation            Energy/Eh            Energy/eV
      -------------------------------------------------------------
         1        2.0000           -0.4432913             -12.0626
       ...           ...                  ...                  ...
        12        2.0000           -0.2751270              -7.4866
        13        2.0000           -0.2689696              -7.3190
        14        2.0000           -0.2555931              -6.9550
        15        2.0000           -0.2461563              -6.6983
        16        2.0000           -0.2432228              -6.6184
        17        1.9662           -0.2285634              -6.2195
        18        1.0794           -0.2248531              -6.1186 (HOMO)
        19        0.9526           -0.2246118              -6.1120 (LUMO)
        20        0.0018           -0.2180460              -5.9333
        21        0.0000           -0.2139073              -5.8207
        22                         -0.2037492              -5.5443
        23                         -0.1892308              -5.1492
       ...                                ...                  ...
        48                          2.3566611              64.1280
      -------------------------------------------------------------
                  HL-Gap            0.0002413 Eh            0.0066 eV
             Fermi-level           -0.2247020 Eh           -6.1145 eV

 SCC (total)                   0 d,  0 h,  0 min,  0.090 sec
 SCC setup                      ...        0 min,  0.000 sec (  0.154%)
 Dispersion                     ...        0 min,  0.000 sec (  0.114%)
 classical contributions        ...        0 min,  0.000 sec (  0.039%)
 integral evaluation            ...        0 min,  0.003 sec (  3.048%)
 iterations                     ...        0 min,  0.080 sec ( 89.270%)
 molecular gradient             ...        0 min,  0.006 sec (  6.986%)
 printout                       ...        0 min,  0.000 sec (  0.363%)

         :::::::::::::::::::::::::::::::::::::::::::::::::::::
         ::                     SUMMARY                     ::
         :::::::::::::::::::::::::::::::::::::::::::::::::::::
         :: total energy             -13.347251325613 Eh    ::
         :: gradient norm              0.732617176750 Eh/a0 ::
         :: HOMO-LUMO gap              0.006565132147 eV    ::
         ::.................................................::
         :: SCC energy               -13.733279632751 Eh    ::
         :: -> isotropic ES            0.054699193758 Eh    ::
         :: -> anisotropic ES          0.000648483593 Eh    ::
         :: -> anisotropic XC         -0.024382864881 Eh    ::
         :: -> dispersion             -0.018630111645 Eh    ::
         :: repulsion energy           0.385986966399 Eh    ::
         :: add. restraining           0.000000000000 Eh    ::
         :: total charge               0.000000000007 e     ::
         :::::::::::::::::::::::::::::::::::::::::::::::::::::


Property printout bound to 'properties.out'

           -------------------------------------------------
          | TOTAL ENERGY              -13.347251325613 Eh   |
          | GRADIENT NORM               0.732617176750 Eh/α |
          | HOMO-LUMO GAP               0.006565132147 eV   |
           -------------------------------------------------

------------------------------------------------------------------------
 * finished run on 2026/04/17 at 12:14:01.368     
------------------------------------------------------------------------
 total:
 * wall-time:     0 d,  0 h,  0 min,  0.103 sec
 *  cpu-time:     0 d,  0 h,  0 min,  0.103 sec
 * ratio c/w:     0.996 speedup
 SCF:
 * wall-time:     0 d,  0 h,  0 min,  0.090 sec
 *  cpu-time:     0 d,  0 h,  0 min,  0.090 sec
 * ratio c/w:     0.996 speedup


-------------------------   --------------------
FINAL SINGLE POINT ENERGY       -13.347251325610
-------------------------   --------------------


-------------
DIPOLE MOMENT
-------------
                                X             Y             Z
Total Dipole Moment    :      0.99700      -1.39500       0.07300
                        -----------------------------------------
Magnitude (a.u.)       :      1.71621
Magnitude (Debye)      :      4.36225


------------------
CARTESIAN GRADIENT
------------------

   1   B   :    0.052963356    0.281202123   -0.007752988
   2   B   :   -0.338765399    0.066656127    0.103015998
   3   B   :    0.140532153    0.151560538    0.152025411
   4   B   :    0.056426026    0.017650580    0.056200175
   5   B   :    0.045770740    0.024647464   -0.033489101
   6   B   :   -0.073253870    0.001481395    0.003218001
   7   B   :   -0.013832242    0.067004817    0.032013855
   8   B   :   -0.029620674   -0.271720217    0.061592871
   9   B   :    0.014452666   -0.053848340   -0.044394683
  10   B   :    0.105463482   -0.299687661   -0.127565937
  11   B   :    0.042693089   -0.033139290   -0.176642609
  12   B   :   -0.002829327    0.048192464   -0.018220994

Difference to translation invariance:
           :    0.0000000000    0.0000000000    0.0000000000

Difference to rotation invariance:
           :    0.0000000171    0.0000000358   -0.0000000640

Norm of the Cartesian gradient     ...    0.7326171767
RMS gradient                       ...    0.1221028628
MAX gradient                       ...    0.3387653991
------------------------------------------------------------------------------
                         ORCA GEOMETRY RELAXATION STEP
------------------------------------------------------------------------------

Reading the OPT-File                    .... done
Getting information on internals        .... done
Copying old internal coords+grads       .... done
Making the new internal coordinates     .... (2022 redundants) done
Validating the new internal coordinates .... (2022 redundants) done
Calculating the B-matrix                .... done
Calculating the G,G- and P matrices     .... done
Transforming gradient to internals      .... done
Projecting the internal gradient        .... done
Number of atoms                         ....  12
Number of internal coordinates          .... 145
Current Energy                          ....   -13.347251326 Eh
Current gradient norm                   ....     0.732617177 Eh/bohr
Maximum allowed component of the step   ....  0.300
Current trust radius                    ....  0.300
Updating the Hessian (BFGS)             .... done
Forming the augmented Hessian           .... done
Diagonalizing the augmented Hessian     .... done
Last element of RFO vector              ....  0.846567632
Lowest eigenvalues of augmented Hessian:
 -0.220113668  0.015821939  0.028324671  0.033853925  0.037156752
Length of the computed step             ....  0.628752094
Warning: the length of the step is outside the trust region - taking restricted step instead
The input lambda is                     ....     0.014734
   iter:   5  x=   -0.019596  g=  260.366541 f(x)=     5.440248
   iter:  10  x=   -0.595882  g=    0.568264 f(x)=     0.106597
   iter:  15  x=   -0.767523  g=    0.152466 f(x)=     0.000000
The output lambda is                    ....    -0.767523 (16 iterations)
The final length of the internal step   ....  0.300000000
Converting the step to Cartesian space:
 Initial RMS(Int)=    0.0249136440
Transforming coordinates:
 Iter   0:  RMS(Cart)=    0.0438251001 RMS(Int)=    0.0248533965
done
Storing new coordinates                 .... done
The predicted energy change is          ....    -0.094968940
Previously predicted energy change      ....    -0.195611247
Actually observed energy change         ....    -0.184828134
Ratio of predicted to observed change   ....     0.944874781
New trust radius                        ....     0.450000000

                                .--------------------.
[...]
Getting information on internals        .... done
Copying old internal coords+grads       .... done
Making the new internal coordinates     .... (2022 redundants) done
Validating the new internal coordinates .... (2022 redundants) done
Calculating the B-matrix                .... done
Calculating the G,G- and P matrices     .... done
Transforming gradient to internals      .... done
Projecting the internal gradient        .... done
Number of atoms                         ....  12
Number of internal coordinates          .... 145
Current Energy                          ....   -14.267458937 Eh
Current gradient norm                   ....     0.011181105 Eh/bohr
Maximum allowed component of the step   ....  0.300
Current trust radius                    ....  0.700
Updating the Hessian (BFGS)             .... done
Forming the augmented Hessian           .... done
Diagonalizing the augmented Hessian     .... done
Last element of RFO vector              ....  0.982317453
Lowest eigenvalues of augmented Hessian:
 -0.000136143  0.000174014  0.000719559  0.001897675  0.003040924
Length of the computed step             ....  0.190593089
The final length of the internal step   ....  0.190593089
Converting the step to Cartesian space:
 Initial RMS(Int)=    0.0158278945
Transforming coordinates:
 Iter   0:  RMS(Cart)=    0.0069987483 RMS(Int)=    0.0175115511
 Iter   5:  RMS(Cart)=    0.0000014647 RMS(Int)=    0.0000114995
done
Storing new coordinates                 .... done
The predicted energy change is          ....    -0.000070544
Previously predicted energy change      ....    -0.000066557
Actually observed energy change         ....    -0.000094602
Ratio of predicted to observed change   ....     1.421361708
New trust radius                        ....     0.700000000

                                .--------------------.
          ----------------------|Geometry convergence|-------------------------
          Item                value                   Tolerance       Converged
          ---------------------------------------------------------------------
          Energy change      -0.0000946022            0.0000010000      NO
          RMS gradient        0.0003402238            0.0000300000      NO
          MAX gradient        0.0015493169            0.0001000000      NO
          RMS step            0.0158278945            0.0006000000      NO
          MAX step            0.1038908658            0.0010000000      NO
          -------------------------------------------------------------------------
          ........................................................
          Max(Bonds)      0.0100      Max(Angles)    0.65
          Max(Dihed)        5.95      Max(Improp)    0.00
          ---------------------------------------------------------------------

The optimization has not yet converged - more geometry cycles are needed


    ---------------------------------------------------------------------------
                         Redundant Internal Coordinates
                            (Angstroem and degrees)

        Definition                    Value    dE/dq     Step     New-Value
    ----------------------------------------------------------------------------
     1. B(B   2,B   1)                1.7432  0.000184 -0.0005    1.7427   
     2. B(B   3,B   1)                1.5264  0.000218  0.0019    1.5283   
     3. B(B   4,B   1)                3.0020 -0.000015  0.0001    3.0021   
     4. B(B   4,B   3)                1.5570  0.000072 -0.0005    1.5565   
     5. B(B   4,B   2)                2.7612 -0.000023 -0.0072    2.7539   
     6. B(B   7,B   0)                1.4995 -0.001485  0.0000    1.4995   
     7. B(B   7,B   2)                1.5484 -0.000591  0.0024    1.5508   
     8. B(B   7,B   5)                3.8113 -0.000265  0.0018    3.8130   
     9. B(B   8,B   7)                2.6720 -0.000675 -0.0028    2.6692   
    10. B(B   9,B   6)                1.5517 -0.000036  0.0000    1.5517   
    11. B(B   9,B   2)                1.8663  0.001549 -0.0100    1.8563   
    12. B(B   9,B   4)                2.9403  0.000355 -0.0008    2.9395   
    13. B(B  10,B   9)                1.5318  0.000332 -0.0013    1.5305   
    14. B(B  10,B   2)                1.7411  0.001073 -0.0004    1.7407   
    15. B(B  10,B   1)                1.5234  0.000621  0.0008    1.5242   
    16. B(B  11,B   4)                1.6747  0.000827  0.0011    1.6758   
    17. B(B  11,B   8)                1.5412  0.000301  0.0002    1.5414   
    18. B(B  11,B   5)                1.5291  0.000067 -0.0000    1.5290   
    19. A(B   4,B   1,B  10)           99.46  0.000022    0.10     99.56   
    20. A(B   3,B   1,B   4)           13.32  0.000219    0.07     13.40   
    21. A(B   2,B   1,B  10)           64.00  0.000266   -0.03     63.97   
    22. A(B   2,B   1,B   3)           75.95  0.000189   -0.37     75.58   
    23. A(B   3,B   1,B  10)          111.99  0.000191    0.37    112.36   
    24. A(B   2,B   1,B   4)           64.98 -0.000013   -0.26     64.72   
    25. A(B   1,B   2,B   4)           80.13 -0.000025    0.23     80.36   
    26. A(B   7,B   2,B  10)          176.38 -0.000035    0.65    177.03   
    27. A(B   4,B   2,B  10)          103.11 -0.000121    0.43    103.54   
    28. A(B   1,B   2,B  10)           51.86  0.000025    0.06     51.91   
    29. A(B   4,B   2,B   7)           73.27  0.000087    0.33     73.59   
    30. A(B   1,B   2,B   9)           87.15 -0.000228    0.20     87.36   
    31. A(B   4,B   2,B   9)           76.18 -0.000082    0.31     76.49   
    32. A(B   1,B   2,B   7)          126.61 -0.000046    0.47    127.08   
    33. A(B   7,B   2,B   9)          127.95  0.000243    0.03    127.99   
    34. A(B   9,B   2,B  10)           50.11 -0.000262    0.17     50.27   
    35. A(B   1,B   3,B   4)          153.62 -0.000446   -0.17    153.45   
    36. A(B   2,B   4,B   3)           46.02  0.000253   -0.06     45.95   
    37. A(B   2,B   4,B  11)          132.92 -0.000236   -0.12    132.80   
    38. A(B   1,B   4,B   2)           34.90  0.000038    0.02     34.92   
    39. A(B   2,B   4,B   9)           38.05  0.000278   -0.17     37.88   
    40. A(B   9,B   4,B  11)          118.14 -0.000283   -0.09    118.04   
    41. A(B   1,B   4,B   9)           49.53  0.000104   -0.06     49.47   
    42. A(B   3,B   4,B   9)           62.04  0.000292    0.12     62.16   
    43. A(B   3,B   4,B  11)          178.26  0.000022   -0.29    177.98   
    44. A(B   1,B   4,B   3)           13.06  0.000227    0.10     13.16   
    45. A(B   1,B   4,B  11)          166.55 -0.000220   -0.18    166.37   
    46. A(B   7,B   5,B  11)           73.68  0.000275   -0.06     73.62   
    47. A(B   0,B   7,B   2)          139.38 -0.000627   -0.14    139.24   
    48. A(B   5,B   7,B   8)           44.76 -0.000098   -0.12     44.64   
    49. A(B   2,B   7,B   5)           72.47 -0.000047   -0.22     72.25   
    50. A(B   0,B   7,B   5)           71.65 -0.000382   -0.01     71.64   
    51. A(B   2,B   7,B   8)          112.62 -0.000089   -0.33    112.29   
    52. A(B   0,B   7,B   8)           27.62 -0.000408    0.06     27.69   
    53. A(B   7,B   8,B  11)          119.65  0.000517    0.25    119.89   
    54. A(B   2,B   9,B  10)           60.70 -0.000014    0.24     60.94   
    55. A(B   4,B   9,B  10)          101.82 -0.000057    0.21    102.02   
    56. A(B   4,B   9,B   6)           51.78  0.000194   -0.24     51.54   
    57. A(B   2,B   9,B   4)           65.77 -0.000196   -0.14     65.63   
    58. A(B   2,B   9,B   6)          113.20 -0.000059   -0.09    113.11   
    59. A(B   6,B   9,B  10)          145.58  0.000235   -0.53    145.05   
    60. A(B   1,B  10,B   2)           64.14 -0.000290   -0.02     64.12   
    61. A(B   2,B  10,B   9)           69.20  0.000277   -0.41     68.79   
    62. A(B   1,B  10,B   9)          109.15 -0.000066   -0.24    108.91   
    63. A(B   4,B  11,B   5)           66.34 -0.000254    0.06     66.40   
    64. A(B   5,B  11,B   8)          121.89 -0.000709   -0.22    121.66   
    65. A(B   4,B  11,B   8)           68.28 -0.000521    0.04     68.33   
    66. D(B   7,B   2,B   1,B  10)    175.87 -0.000034    0.72    176.59   
    67. D(B   7,B   2,B   1,B   4)     60.44  0.000126    0.37     60.81   
    68. D(B  10,B   2,B   1,B   3)   -123.47  0.000064   -0.70   -124.17   
    69. D(B   7,B   2,B   1,B   3)     52.40  0.000030    0.01     52.42   
    70. D(B   9,B   2,B   1,B   3)    -84.50 -0.000051   -0.64    -85.14   
    71. D(B   9,B   2,B   1,B  10)     38.97 -0.000115    0.06     39.03   
    72. D(B   9,B   2,B   1,B   4)    -76.46  0.000045   -0.28    -76.74   
    73. D(B   4,B   3,B   1,B   2)     33.33 -0.000169    1.13     34.46   
    74. D(B   4,B   3,B   1,B  10)    -20.63 -0.000511    1.52    -19.11   
    75. D(B   2,B   4,B   1,B   3)    143.96  0.000148   -1.24    142.73   
    76. D(B  11,B   4,B   1,B   3)    172.61  0.000214   -1.10    171.51   
    77. D(B   3,B   4,B   2,B   9)    100.12 -0.000118    0.54    100.66   
    78. D(B   3,B   4,B   1,B  10)    160.66 -0.000450    1.48    162.14   
    79. D(B   3,B   4,B   2,B  10)     57.47  0.000171    0.40     57.87   
    80. D(B   3,B   4,B   1,B   2)   -143.96 -0.000148    1.24   -142.73   
    81. D(B  11,B   4,B   3,B   1)    -80.59  0.000064   -1.19    -81.78   
    82. D(B  11,B   4,B   2,B  10)   -124.42  0.000198    0.08   -124.34   
    83. D(B  11,B   4,B   2,B   9)    -81.77 -0.000091    0.21    -81.56   
    84. D(B   9,B   4,B   3,B   1)     15.50  0.000418   -1.21     14.30   
    85. D(B   3,B   4,B   2,B   1)     10.65  0.000100    0.45     11.09   
    86. D(B   3,B   4,B   2,B   7)   -122.55  0.000184    0.19   -122.36   
    87. D(B   2,B   4,B   3,B   1)    -27.89  0.000208   -0.88    -28.76   
    88. D(B  11,B   4,B   2,B   7)     55.57  0.000211   -0.14     55.43   
    89. D(B  11,B   4,B   2,B   1)   -171.24  0.000127    0.12   -171.12   
    90. D(B  11,B   4,B   1,B   2)     28.65  0.000066    0.14     28.78   
    91. D(B   2,B   4,B   1,B  10)    -55.38 -0.000303    0.25    -55.13   
    92. D(B  11,B   4,B   1,B  10)    -26.73 -0.000236    0.38    -26.35   
    93. D(B   0,B   7,B   2,B  10)      3.07  0.000159    5.95      9.02   
    94. D(B   0,B   7,B   2,B   9)     59.43  0.000122    0.13     59.56   
    95. D(B   0,B   7,B   2,B   4)      2.85  0.000363   -0.60      2.26   
    96. D(B   0,B   7,B   2,B   1)    -60.63  0.000281    0.49    -60.15   
    97. D(B   8,B   7,B   5,B  11)      0.95  0.000257   -0.26      0.69   
    98. D(B   2,B   7,B   5,B  11)    153.97  0.000385   -0.31    153.66   
    99. D(B   8,B   7,B   2,B  10)     -5.59 -0.000367    5.05     -0.53   
   100. D(B   8,B   7,B   2,B   9)     50.78 -0.000404    0.64     51.42   
   101. D(B   8,B   7,B   2,B   1)    -69.29 -0.000246   -0.41    -69.70   
   102. D(B   0,B   7,B   5,B  11)     -6.67  0.000931   -0.10     -6.77   
   103. D(B  11,B   8,B   7,B   5)     -1.04 -0.000287    0.23     -0.81   
   104. D(B  11,B   8,B   7,B   2)    -28.98 -0.000127    0.23    -28.75   
   105. D(B  11,B   8,B   7,B   0)    163.21  0.000948    0.58    163.79   
   106. D(B   6,B   9,B   4,B   1)    156.49  0.000197   -0.82    155.67   
   107. D(B   6,B   9,B   4,B   2)   -154.74  0.000155   -0.75   -155.49   
   108. D(B   6,B   9,B   4,B   3)    151.94  0.000006   -0.43    151.51   
   109. D(B   6,B   9,B   4,B  11)    -30.02  0.000037   -0.78    -30.80   
   110. D(B   2,B   9,B   4,B   1)    -48.76  0.000042   -0.07    -48.84   
   111. D(B   2,B   9,B   4,B   3)    -53.32 -0.000149    0.31    -53.00   
   112. D(B   2,B   9,B   4,B  11)    124.72 -0.000118   -0.03    124.69   
   113. D(B  10,B   9,B   2,B   4)   -120.67 -0.000112   -0.22   -120.89   
   114. D(B  10,B   9,B   2,B   7)   -176.07  0.000051   -0.96   -177.03   
   115. D(B  10,B   9,B   2,B   1)    -40.14 -0.000082   -0.03    -40.17   
   116. D(B   6,B   9,B   2,B   4)     21.39  0.000179   -0.72     20.67   
   117. D(B   6,B   9,B   2,B  10)    142.06  0.000291   -0.50    141.56   
   118. D(B   6,B   9,B   2,B   7)    -34.01  0.000342   -1.46    -35.47   
   119. D(B   6,B   9,B   2,B   1)    101.92  0.000209   -0.53    101.39   
   120. D(B   1,B  10,B   2,B   4)    -66.00 -0.000097    0.05    -65.95   
   121. D(B   1,B  10,B   2,B   9)   -125.04  0.000094   -0.08   -125.12   
   122. D(B   1,B  10,B   2,B   7)    -66.21  0.000103   -1.23    -67.44   
   123. D(B   9,B  10,B   1,B   4)      1.94 -0.000096   -0.05      1.90   
   124. D(B   9,B  10,B   1,B   3)      6.66  0.000092   -0.37      6.29   
   125. D(B   9,B  10,B   1,B   2)    -54.12 -0.000205    0.40    -53.72   
   126. D(B   2,B  10,B   1,B   4)     56.06  0.000109   -0.44     55.62   
   127. D(B   9,B  10,B   2,B   1)    125.04 -0.000094    0.08    125.12   
   128. D(B   2,B  10,B   1,B   3)     60.78  0.000298   -0.77     60.01   
   129. D(B   2,B  10,B   9,B   4)    -53.26  0.000223    0.20    -53.06   
   130. D(B   2,B  10,B   9,B   6)    -88.87  0.000269   -0.43    -89.29   
   131. D(B   1,B  10,B   9,B   4)     -2.00  0.000102    0.00     -2.00   
   132. D(B   1,B  10,B   9,B   6)    -37.61  0.000148   -0.62    -38.23   
   133. D(B   1,B  10,B   9,B   2)     51.26 -0.000121   -0.20     51.06   
   134. D(B   9,B  10,B   2,B   4)     59.04 -0.000191    0.13     59.17   
   135. D(B   9,B  10,B   2,B   7)     58.83  0.000008   -4.97     53.87   
   136. D(B   5,B  11,B   8,B   7)      2.15  0.000572   -0.48      1.67   
   137. D(B   4,B  11,B   5,B   7)    -42.92 -0.000015   -0.13    -43.05   
   138. D(B   8,B  11,B   5,B   7)     -1.36 -0.000352    0.36     -1.00   
   139. D(B   5,B  11,B   4,B   2)     76.39 -0.000092    0.03     76.42   
   140. D(B   5,B  11,B   4,B   3)    127.80  0.000077    0.12    127.92   
   141. D(B   8,B  11,B   4,B   9)   -110.06 -0.000095    0.59   -109.47   
   142. D(B   8,B  11,B   4,B   1)    -88.28  0.000131    0.29    -88.00   
   143. D(B   4,B  11,B   8,B   7)     42.99  0.000327    0.06     43.05   
   144. D(B   8,B  11,B   4,B   2)    -66.29  0.000114    0.32    -65.96   
   145. D(B   8,B  11,B   4,B   3)    -14.88  0.000282    0.42    -14.47   
    ----------------------------------------------------------------------------

Geometry step timings:
Preparation and reading OPT file:      0.000 s ( 0.696 %)
Internal coordinates            :      0.000 s ( 1.392 %)
B/P matrices and projection     :      0.001 s (21.284 %)
Hessian update/contruction      :      0.001 s (18.501 %)
Making the step                 :      0.002 s (34.045 %)
Converting the step to Cartesian:      0.000 s ( 3.495 %)
Storing new data                :      0.000 s ( 2.056 %)
Checking convergence            :      0.000 s ( 1.233 %)
Final printing                  :      0.001 s (17.268 %)
Total time                      :      0.006 s

Time for energy+gradient        :      0.061 s
Time for complete geometry iter :      0.069 s




    ----------------------------------------------------------------------------
                                  WARNING !!!
       The optimization did not converge but reached the maximum number of
       optimization cycles.
       Please check your results very carefully.
    ----------------------------------------------------------------------------



--------------------------------
SUGGESTED CITATIONS FOR THIS RUN
--------------------------------

Below you find a list of papers that are relevant to this ORCA run
We neither can nor want to force you to cite these papers, but we appreciate if you do
You receive ORCA, which is the product of decades of hard work by many enthusiastic individuals, for free
The only thing we kindly ask in return is that you cite our papers,
We deeply appreciate it, if you show your appreciation for ORCA by not just citing the generic ORCA reference.

Please note that relegating all ORCA citations to the supporting information does *not* help us.
SI sections are not indexed - citations you put there will not count into any citation statistics
But we need these citations in order to attract the funding resources that allow us to do what we are doing

Therefore, if you are a happy ORCA user, please consider citing a few of the papers listed below in the main body of your paper

In addition to the list printed below, the program has created the file random_d1.50_004_m1.bibtex that contains the list in bibtex format
You can import this file easily into all common literature databanks and citation aid programs

It goes without saying that in many instances, there are alternative algorithms to achieve similar
results as the ones you have gotten from ORCA. It is, of course, also the case that in some instances
ORCA just re-implements algorithms worked out by others. We are fully aware of that and we are also
fully appreciative of our colleagues work. Hence this citation list should not be read as indicating
that the listed papers, which are focused on our own work, are the only ones worth citing. It simply
meant to make it easier for users to cite ORCA specific papers. It is not a substitute for doing your
own literature research and citing the relevant literature in a scientifically appropriate manner.

List of essential papers. We consider these as the minimum necessary citations

  1. Bannwarth, C.; Ehlert, S.; Grimme, S.
     GFN2-xTB—An Accurate and Broadly Parametrized Self-Consistent Tight-Binding Quantum Chemical Method with Multipole Electrostatics and Density-Dependent Dispersion Contributions
     J. Chem. Theory Comput. 2019 15(3), 1652-1671
     doi.org/10.1021/acs.jctc.8b01176
  2. Neese, F.
     Software update: the ORCA program system, version 6.0
     WIRES Comput. Molec. Sci. 2025 15(1), e70019
     doi.org/10.1002/wcms.70019

List of papers to cite with high priority. The work reported in these papers was absolutely
necessary for this run to complete.
Our perspective: the developers of density functionals and basis sets usually get cited in chemistry papers
Good! But without the algorithms to do something with them, the functionals or basis sets would not do anything.
Hence, in our opinion, the algorithm design and method developments papers are equally worthy of getting cited

  1. Bannwarth, C.; Caldeweyher, E.; Ehlert, S.; Hansen, A.; Pracht, P.; Seibert, J.; Spicher, S.; Grimme, S.
     Extended tight-binding quantum chemistry methods
     WIRES Comput. Molec. Sci. 2020 11(2), e1493
     doi.org/10.1002/wcms.1493

List of suggested additional citations. These are papers that are important in the 'surrounding' of 
of this run, or papers that preceded the highly important papers. If you like your results we are grateful for a citation.

  1. Neese, F.
     The ORCA program system
     WIRES Comput. Molec. Sci. 2012 2(1), 73-78
     doi.org/10.1002/wcms.81
  2. Neese, F.
     Software update: the ORCA program system, version 4.0
     WIRES Comput. Molec. Sci. 2018 8(1), 1-6
     doi.org/10.1002/wcms.1327
  3. Neese, F.; Wennmohs, F.; Becker, U.; Riplinger, C.
     The ORCA quantum chemistry program package
     J. Chem. Phys. 2020 152(22), 224108
     doi.org/10.1063/5.0004608
  4. Neese, F.
     Software update: The ORCA program system—Version 5.0
     WIRES Comput. Molec. Sci. 2022 12(1), e1606
     doi.org/10.1002/wcms.1606

List of optional additional citations

  1. Neese, F.
     Approximate second-order SCF convergence for spin unrestricted wavefunctions
     Chem. Phys. Lett. 2000 325(1-3), 93-98
     doi.org/10.1016/s0009-2614(00)00662-x

Timings for individual modules:

Sum of individual times          ...        3.231 sec (=   0.054 min)
Geometry relaxation              ...        0.410 sec (=   0.007 min)  12.7 %
XTB module                       ...        2.820 sec (=   0.047 min)  87.3 %
                             ****ORCA TERMINATED NORMALLY****
TOTAL RUN TIME: 0 days 0 hours 0 minutes 4 seconds 241 msec
