
                                 *****************
                                 * O   R   C   A *
                                 *****************

                                            #,                                       
                                            ###                                      
                                            ####                                     
                                            #####                                    
                                            ######                                   
                                           ########,                                 
                                     ,,################,,,,,                         
                               ,,#################################,,                 
                          ,,##########################################,,             
                       ,#########################################, ''#####,          
                    ,#############################################,,   '####,        
                  ,##################################################,,,,####,       
                ,###########''''           ''''###############################       
              ,#####''   ,,,,##########,,,,          '''####'''          '####       
            ,##' ,,,,###########################,,,                        '##       
           ' ,,###''''                  '''############,,,                           
         ,,##''                                '''############,,,,        ,,,,,,###''
      ,#''                                            '''#######################'''  
     '                                                          ''''####''''         
             ,#######,   #######,   ,#######,      ##                                
            ,#'     '#,  ##    ##  ,#'     '#,    #''#        ,####,    ,#,          
            ##       ##  ##   ,#'  ##            #'  '#       #'       ,# #          
            ##       ##  #######   ##           ,######,      #####,      #          
            '#,     ,#'  ##    ##  '#,     ,#' ,#      #,     #,   #      #          
             '#######'   ##     ##  '#######'  #'      '#     '####' #    #          



                #########################################################
                #                        -***-                          #
                #          Department of theory and spectroscopy        #
                #                                                       #
                #                      Frank Neese                      #
                #                                                       #
                #     Directorship, Architecture, Infrastructure        #
                #                    SHARK, DRIVERS                     #
                #        Core code/Algorithms in most modules           #
                #                                                       #
                #        Max Planck Institute fuer Kohlenforschung      #
                #                Kaiser Wilhelm Platz 1                 #
                #                 D-45470 Muelheim/Ruhr                 #
                #                      Germany                          #
                #                                                       #
                #                  All rights reserved                  #
                #                        -***-                          #
                #########################################################


                         Program Version 6.1.1  -  RELEASE   -
                                (GIT: $487d211c$)
                          ($2025-11-21 10:33:24 +0100$)
                                                                         
                                  - NO-DMRG VERSION -                    
                                                                         


 With contributions from (in alphabetic order):
[Max-Planck-Institut fuer Kohlenforschung]                               
  Daniel Aravena         : Magnetic Suceptibility                        
  Michael Atanasov       : Ab Initio Ligand Field Theory (pilot matlab implementation)
  Alexander A. Auer      : GIAO ZORA, VPT2 properties, NMR spectrum      
  Ute Becker             : All parallelization in ORCA, NUMFREQ, NUMCALC 
  Giovanni Bistoni       : ED, misc. LED, open-shell LED, HFLD           
  Dmytro Bykov           : pre 5.0 version of the SCF Hessian            
  Marcos Casanova-Páez   : Triplet and SCS-CIS(D). UHF-(DLPNO)-IP/EA/STEOM-CCSD. UHF-CVS-IP/STEOM-CCSD   
  Vijay G. Chilkuri      : MRCI spin determinant printing, contributions to CSF-ICE 
  Pauline Colinet        : FMM embedding                                 
  Dipayan Datta          : RHF DLPNO-CCSD density                        
  Achintya Kumar Dutta   : EOM-CC, STEOM-CC                              
  Nicolas Foglia         : Exact transition moments, OPA infrastructure, MCD improvements    
  Dmitry Ganyushin       : Spin-Orbit,Spin-Spin,Magnetic field MRCI      
  Miquel Garcia-Rates    : C-PCM and meta-GGA Hessian, CCSD/C-PCM, Gaussian charge scheme 
  Tiago L. C. Gouveia    : GS-ROHF, GS-ROCIS                             
  Yang Guo               : DLPNO-NEVPT2, F12-NEVPT2, CIM, IAO-localization        
  Andreas Hansen         : Spin unrestricted coupled pair/coupled cluster methods 
  Ingolf Harden          : AUTO-CI MPn and infrastructure                
  Benjamin Helmich-Paris : MC-RPA, TRAH-(SCF,CASSCF), AVAS, COSX integrals, SCF dyn. polar., MC-PDFT, srDFT 
  Lee Huntington         : MR-EOM, pCC                                   
  Robert Izsak           : Overlap fitted RIJCOSX, COSX-SCS-MP3, EOM     
  Riya Kayal             : Wick's Theorem for AUTO-CI, AUTO-CI UHF-CCSDT 
  Emily Kempfer          : AUTO-CI RHF CISDT and CCSDT, approximate NEVPT4
  Christian Kollmar      : KDIIS, OOCD, Brueckner-CCSD(T), CCSD density, CASPT2, CASPT2-K, improved NEVPT2 
  Axel Koslowski         : Symmetry handling                             
  Simone Kossmann        : meta-GGA functionals, TD-DFT gradient, OOMP2, (MP2 Hessian; deprecated post 5.0) 
  Lucas Lang             : DCDCAS, Hyperfine gauge corrections, ICE-SOC+SSC
  Marvin Lechner         : AUTO-CI (C++ implementation), FIC-MRCC        
  Spencer Leger          : CASSCF response                               
  Dagmar Lenk            : GEPOL surface, SMD, ORCA-2-JSON               
  Dimitrios Liakos       : Extrapolation schemes; Compound Job, Property file
  Dimitrios Manganas     : Further ROCIS development; embedding schemes. LFT, Crystal Embedding 
  Dimitrios Pantazis     : SARC Basis sets                               
  Anastasios Papadopoulos: AUTO-CI, single reference methods and gradients 
  Taras Petrenko         : pre 6.0 DFT Hessian and TD-DFT gradient,  ECA, NRVS 
  Petra Pikulova         : Analytic Raman intensities                    
  Peter Pinski           : DLPNO-MP2, DLPNO-MP2 Gradient                 
  Shashank Vittal Rao    : ES-AILFT, MagRelax                            
  Christoph Reimann      : Effective Core Potentials                     
  Marius Retegan         : Local ZFS, SOC                                
  Christoph Riplinger    : Optimizer, TS searches, QM/MM, DLPNO-CCSD(T), (RO)-DLPNO pert. Triples 
  Michael Roemelt        : Original ROCIS implementation, recursive CI coupling coefficients
  Masaaki Saitow         : Open-shell DLPNO-CCSD energy and density      
  Barbara Sandhoefer     : DKH picture change effects                    
  Yorick L. A. Schmerwitz: GMF and freeze-and-release deltaSCF, NEB S-IDPP initial path                    
  Kantharuban Sivalingam : CASSCF convergence/infrastructure, NEVPT2, NEVPT3, NEVPT4(SD), FIC-MRCI and CEPA variants
  Bernardo de Souza      : ESD, SOC TD-DFT                               
  Georgi L. Stoychev     : AutoAux, RI-MP2 NMR, DLPNO-MP2 response, X2C  
  Van Anh Tran           : RI-MP2 g-tensors                              
  Willem Van den Heuvel  : Paramagnetic NMR                              
  Zikuan Wang            : NOTCH, Electric field optimization            
  Frank Wennmohs         : Technical directorship and infrastructure     
  Hang Xu                : AUTO-CI-Response properties                   
                                                                         
[FACCTs GmbH]                                                            
  Markus Bursch, Nicolas Foglia, Miquel Garcia-Rates, Ingolf Harden, Hagen Neugebauer, Anastasios Papadopoulos, 
  Christoph Riplinger, Bernardo de Souza, Georgi L. Stoychev                                                    
                                                                 
  APM, various basis sets, CI-OPT, improved COSX, DLPNO-Multilevel,           
  DOCKER, DRACO, updates on ESD, Fragmentator, GOAT, IRC, LR-CPCM, L-BFGS, MBIS, meta-GGA TD-DFT gradient, ML-optimized integration grids, 
  MM, NACMEs, nearIR, NEB, NEB-TS, NL-DFT gradient (VV10), 2- and 3-layer-ONIOM, interface openCOSMO-RS, QMMM,   
  Crystal-QMMM, RESP, rigid body optimization, SF, symmetry and pop. for TD-DFT, various functionals, SOLVATOR                                   
                                                                         
[Other institutions]                                                     
  V. Asgeirsson          : NEB                                           
  Christoph Bannwarth    : sTDA-DFT, sTD-DFT, PBEh-3c, B97-3c, D3        
  Giovanni Bistoni       : ETS/NOCV, ADLD/ADEX, COVALED                  
  Martin Brehm           : Molecular dynamics                            
  Ronald Cardenas        : ETS/NOCV                                      
  Martina Colucci        : COVALED                                       
  Sebastian Ehlert       : rSCAN, r2SCAN, r2SCAN-3c, D4, dhf basis sets  
  Marvin Friede          : D4 for Fr, Ra, Ac-Lr                          
  Lars Goerigk           : TD-DFT with DH, B97 family of functionals     
  Stefan Grimme          : VdW corrections, initial TS optimization, DFT functionals, gCP, sTDA/sTD-DF 
  Waldemar Hujo          : DFT-NL                                        
  H. Jonsson             : NEB                                           
  Holger Kruse           : gCP                                           
  Marcel Mueller         : wB97X-3c, vDZP basis set                      
  Hagen Neugebauer       : wr2SCAN, Native XTB                           
  Gianluca Regni         : ADLD/ADEX                                     
  Tobias Risthaus        : pre 6.0 range-separated hybrid DFT and stability analysis
  Lukas Wittmann         : regularized MP2, r2SCAN double-hybrids, wr2SCAN        
                                                                         
We gratefully acknowledge several colleagues who have allowed us to      
interface, adapt or use parts of their codes:                            
  Ed Valeev, F. Pavosevic, A. Kumar             : LibInt (2-el integral package), F12 methods 
  Garnet Chan, S. Sharma, J. Yang, R. Olivares  : DMRG                   
  Ulf Ekstrom                                   : XCFun DFT Library      
  Mihaly Kallay                                 : mrcc  (arbitrary order and MRCC methods)
  Frank Weinhold                                : gennbo (NPA and NBO analysis)           
  Simon Mueller                                 : openCOSMO-RS                            
  Christopher J. Cramer and Donald G. Truhlar   : smd solvation model                     
  S Lehtola, MJT Oliveira, MAL Marques          : LibXC Library                           
  Liviu Ungur et al                             : ANISO software                          


 Your calculation uses the libint2 library for the computation of 2-el integrals
 For citations please refer to: http://libint.valeyev.net

 Your ORCA version has been built with support for libXC version: 7.0.0
 For citations please refer to: https://libxc.gitlab.io

 This ORCA versions uses:
   CBLAS   interface :  Fast vector & matrix operations
   LAPACKE interface :  Fast linear algebra routines
   SCALAPACK package :  Parallel linear algebra routines
   Shared memory     :  Shared parallel matrices
   BLAS/LAPACK       :  OpenBLAS 0.3.29  USE64BITINT DYNAMIC_ARCH NO_AFFINITY Zen SINGLE_THREADED
        Core in use  :  Zen
   Copyright (c) 2011-2014, The OpenBLAS Project


  ***********************************
  * Starting time: Fri Apr 17 12:14:14 2026
  * Host name:     vmi3233575
  * Process ID:    333288
  * Working dir.:  /root/orca_b12_vps_pack/jobs/01_xtb/mult_1
  ***********************************

NOTE: MaxCore=500 MB was set to SCF,MP2,MDCI,CIPSI,MRCI,RASCI and CIS
      => If you want to overwrite this, your respective input block should be placed after the MaxCore statement


***************************************
The coordinates will be read from file: ../../../starts/random_d1.90_004.xyz
***************************************


Your calculation utilizes the semiempirical GFN2-xTB method
Please cite in your paper:
Bannwarth, C.; Ehlert S.; Grimme, S. J. Chem. Theory Comput. 2019, 15, 1652.
   

================================================================================

================================================================================
                                        WARNINGS
                       Please study these warnings very carefully!
================================================================================


WARNING: Geometry Optimization
  ===> : Switching off AutoStart
         For restart on a previous wavefunction, please use MOREAD

WARNING: Found dipole moment calculation with XTB calculation
  ===> : Switching off dipole moment calculation

Environment variable XTBEXE for xtb has been set!

================================================================================
                                       INPUT FILE
================================================================================
NAME = random_d1.90_004_m1.inp
|  1> ! GFN2-xTB TightSCF TightOpt
|  2> 
|  3> %pal
|  4>   nprocs 1
|  5> end
|  6> 
|  7> %maxcore 500
|  8> 
|  9> * xyzfile 0 1 ../../../starts/random_d1.90_004.xyz
| 10> 
| 11>                          ****END OF INPUT****
================================================================================

                       *****************************
                       * Geometry Optimization Run *
                       *****************************

Geometry optimization settings:
Update method            Update   .... BFGS
Choice of coordinates    CoordSys .... (2022) Redundant Internals
Initial Hessian          InHess   .... Almloef's Model
Max. no of cycles        MaxIter  .... 50

Convergence Tolerances:
Energy Change            TolE     ....  1.0000e-06 Eh
Max. Gradient            TolMAXG  ....  1.0000e-04 Eh/bohr
RMS Gradient             TolRMSG  ....  3.0000e-05 Eh/bohr
Max. Displacement        TolMAXD  ....  1.0000e-03 bohr
RMS Displacement         TolRMSD  ....  6.0000e-04 bohr
Strict Convergence                .... False

------------------------------------------------------------------------------
                        ORCA OPTIMIZATION COORDINATE SETUP
------------------------------------------------------------------------------

The optimization will be done in redundant internal coordinates (2022)
Making redundant internal coordinates   ...  (2022 redundants) done
Evaluating the initial hessian          ...  (Almloef) done
Evaluating the coordinates              ...  done
Calculating the B-matrix                .... done
Calculating the G-matrix                .... done
The number of degrees of freedom        ....  127

    -----------------------------------------------------------------
                    Redundant Internal Coordinates


    -----------------------------------------------------------------
         Definition                    Initial Value    Approx d2E/dq
    -----------------------------------------------------------------
      1. B(B   1,B   0)                  2.4167         0.019293   
      2. B(B   2,B   0)                  1.4940         0.571970   
      3. B(B   3,B   1)                  2.0194         0.083037   
      4. B(B   4,B   2)                  2.1429         0.052738   
      5. B(B   5,B   3)                  1.9486         0.107694   
      6. B(B   5,B   1)                  1.2926         1.198793   
      7. B(B   6,B   0)                  2.1635         0.048896   
      8. B(B   7,B   6)                  1.8222         0.171320   
      9. B(B   7,B   5)                  2.0637         0.070561   
     10. B(B   9,B   8)                  2.8515         0.010000   
     11. B(B  10,B   1)                  1.7218         0.247744   
     12. B(B  10,B   6)                  1.4191         0.753301   
     13. B(B  10,B   0)                  2.7294         0.010000   
     14. B(B  10,B   5)                  1.9720         0.098815   
     15. B(B  11,B   2)                  2.5822         0.010503   
     16. B(B  11,B   9)                  1.6736         0.295785   
     17. B(B  11,B   5)                  1.9897         0.092604   
     18. A(B   6,B   0,B  10)           31.0632         0.160233   
     19. A(B   1,B   0,B   2)           94.5354         0.250199   
     20. A(B   1,B   0,B   6)           61.5750         0.181387   
     21. A(B   2,B   0,B   6)          117.7325         0.287964   
     22. A(B   2,B   0,B  10)          125.6252         0.213289   
     23. A(B   1,B   0,B  10)           38.4928         0.146713   
     24. A(B   0,B   1,B  10)           80.6273         0.222388   
     25. A(B   3,B   1,B  10)          125.8732         0.274604   
     26. A(B   5,B   1,B  10)           80.3434         0.428640   
     27. A(B   0,B   1,B   3)          152.2461         0.193152   
     28. A(B   0,B   1,B   5)          114.6360         0.279590   
     29. A(B   3,B   1,B   5)           68.0467         0.354198   
     30. A(B   0,B   2,B  11)          101.1517         0.229472   
     31. A(B   4,B   2,B  11)          143.2603         0.170898   
     32. A(B   0,B   2,B   4)          105.9423         0.291400   
     33. A(B   1,B   3,B   5)           37.9709         0.242708   
     34. A(B   1,B   5,B   3)           73.9824         0.370273   
     35. A(B   7,B   5,B  10)           78.4051         0.234290   
     36. A(B   3,B   5,B  10)          116.5204         0.248881   
     37. A(B   3,B   5,B   7)          164.9943         0.237147   
     38. A(B  10,B   5,B  11)          130.4531         0.243510   
     39. A(B   1,B   5,B  10)           59.4012         0.364848   
     40. A(B   7,B   5,B  11)           80.8428         0.232170   
     41. A(B   3,B   5,B  11)           89.5807         0.246549   
     42. A(B   1,B   5,B   7)          117.8215         0.344603   
     43. A(B   1,B   5,B  11)           93.2435         0.360825   
     44. A(B   7,B   6,B  10)          103.1594         0.370250   
     45. A(B   0,B   6,B  10)           97.0621         0.300759   
     46. A(B   0,B   6,B   7)          114.5367         0.240451   
     47. A(B   5,B   7,B   6)           75.1803         0.253560   
     48. A(B   8,B   9,B  11)          126.0564         0.185718   
     49. A(B   5,B  10,B   6)           87.4700         0.337314   
     50. A(B   1,B  10,B   6)           96.6399         0.394738   
     51. A(B   1,B  10,B   5)           40.2554         0.282058   
     52. A(B   0,B  10,B   6)           51.8747         0.221283   
     53. A(B   0,B  10,B   5)           83.4769         0.172530   
     54. A(B   0,B  10,B   1)           60.8799         0.191847   
     55. A(B   2,B  11,B   5)           97.5699         0.182028   
     56. A(B   5,B  11,B   9)          101.9784         0.287029   
     57. A(B   2,B  11,B   9)          108.3513         0.209995   
     58. D(B   5,B   1,B   0,B  10)    -74.7677         0.010000   
     59. D(B   3,B   1,B   0,B   6)   -136.2596         0.010000   
     60. D(B   3,B   1,B   0,B  10)   -164.0970         0.010000   
     61. D(B   5,B   1,B   0,B   2)     72.2700         0.010000   
     62. D(B   5,B   1,B   0,B   6)    -46.9303         0.010000   
     63. D(B   3,B   1,B   0,B   2)    -17.0593         0.010000   
     64. D(B  11,B   2,B   0,B   6)     35.2667         0.016488   
     65. D(B  11,B   2,B   0,B   1)    -24.8808         0.016488   
     66. D(B   4,B   2,B   0,B  10)    154.6672         0.016488   
     67. D(B   4,B   2,B   0,B   1)    130.0458         0.016488   
     68. D(B   4,B   2,B   0,B   6)   -169.8068         0.016488   
     69. D(B   5,B   3,B   1,B  10)    -59.0236         0.010000   
     70. D(B   5,B   3,B   1,B   0)    101.4868         0.010000   
     71. D(B   3,B   5,B   1,B   0)   -149.8645         0.092841   
     72. D(B   3,B   5,B   1,B  10)    135.1920         0.092841   
     73. D(B  10,B   5,B   3,B   1)     42.6826         0.010000   
     74. D(B   7,B   5,B   3,B   1)   -143.5562         0.010000   
     75. D(B  10,B   5,B   1,B   0)     74.9435         0.092841   
     76. D(B  10,B   5,B   1,B   3)   -135.1920         0.092841   
     77. D(B   7,B   5,B   1,B   0)     20.1204         0.092841   
     78. D(B   7,B   5,B   1,B  10)    -54.8230         0.092841   
     79. D(B  11,B   5,B   3,B   1)    -93.4953         0.010000   
     80. D(B   7,B   5,B   1,B   3)    169.9849         0.092841   
     81. D(B  10,B   6,B   0,B   1)    -34.2834         0.010000   
     82. D(B   7,B   6,B   0,B   2)     -5.7576         0.010000   
     83. D(B   7,B   6,B   0,B   1)     73.6992         0.010000   
     84. D(B  10,B   6,B   0,B   2)   -113.7401         0.010000   
     85. D(B   7,B   6,B   0,B  10)    107.9826         0.010000   
     86. D(B   6,B   7,B   5,B  10)    -23.0178         0.010000   
     87. D(B   6,B   7,B   5,B   3)    162.6789         0.010000   
     88. D(B   6,B   7,B   5,B   1)     22.8896         0.010000   
     89. D(B   5,B   7,B   6,B   0)    -71.0765         0.010000   
     90. D(B   5,B   7,B   6,B  10)     33.1364         0.010000   
     91. D(B   6,B   7,B   5,B  11)    111.7283         0.010000   
     92. D(B   0,B  10,B   6,B   7)   -117.3032         0.029073   
     93. D(B   5,B  10,B   6,B   0)     83.6919         0.029073   
     94. D(B   5,B  10,B   6,B   7)    -33.6114         0.029073   
     95. D(B   1,B  10,B   6,B   7)    -72.8771         0.029073   
     96. D(B   6,B  10,B   5,B  11)    -38.0730         0.010000   
     97. D(B   6,B  10,B   5,B   7)     29.0692         0.010000   
     98. D(B   6,B  10,B   5,B   3)   -152.5767         0.010000   
     99. D(B   6,B  10,B   5,B   1)   -103.3735         0.010000   
    100. D(B   1,B  10,B   5,B  11)     65.3006         0.010000   
    101. D(B   1,B  10,B   5,B   7)    132.4428         0.010000   
    102. D(B   1,B  10,B   5,B   3)    -49.2032         0.010000   
    103. D(B   0,B  10,B   1,B   3)    170.9400         0.010000   
    104. D(B   6,B  10,B   1,B   0)    -39.0743         0.010000   
    105. D(B   6,B  10,B   1,B   5)     78.0969         0.010000   
    106. D(B   6,B  10,B   1,B   3)    131.8657         0.010000   
    107. D(B   5,B  10,B   1,B   0)   -117.1712         0.010000   
    108. D(B   5,B  10,B   1,B   3)     53.7688         0.010000   
    109. D(B   6,B  10,B   0,B   2)     85.4039         0.010000   
    110. D(B   5,B  10,B   0,B   1)     35.3544         0.010000   
    111. D(B   1,B  10,B   6,B   0)     44.4261         0.029073   
    112. D(B   5,B  10,B   0,B   6)    -91.9059         0.010000   
    113. D(B   5,B  10,B   0,B   2)     -6.5020         0.010000   
    114. D(B   1,B  10,B   0,B   6)   -127.2603         0.010000   
    115. D(B   1,B  10,B   0,B   2)    -41.8563         0.010000   
    116. D(B   9,B  11,B   5,B   1)    -74.7125         0.010000   
    117. D(B   9,B  11,B   2,B   4)    -24.8371         0.010000   
    118. D(B   9,B  11,B   2,B   0)    112.2254         0.010000   
    119. D(B   5,B  11,B   2,B   4)   -130.1843         0.010000   
    120. D(B   5,B  11,B   2,B   0)      6.8782         0.010000   
    121. D(B   2,B  11,B   9,B   8)     -7.7033         0.010000   
    122. D(B   5,B  11,B   9,B   8)     94.5516         0.010000   
    123. D(B   2,B  11,B   5,B   3)    109.8816         0.010000   
    124. D(B   2,B  11,B   5,B   1)     35.9508         0.010000   
    125. D(B   9,B  11,B   5,B  10)   -126.2724         0.010000   
    126. D(B   9,B  11,B   5,B   7)    167.6182         0.010000   
    127. D(B   9,B  11,B   5,B   3)     -0.7816         0.010000   
    -----------------------------------------------------------------

Number of atoms                         .... 12
Number of degrees of freedom            .... 127


         *************************************************************
         *                GEOMETRY OPTIMIZATION CYCLE   1            *
         *************************************************************
---------------------------------
CARTESIAN COORDINATES (ANGSTROEM)
---------------------------------
  B    -1.127833   -1.554921    0.341092
  B     1.013569   -0.558066   -0.169733
  B    -1.909152   -0.317868    0.038741
  B     2.163313    0.874968   -1.007774
  B    -3.485231   -0.924816   -1.280244
  B     1.431237    0.298513    0.703582
  B     0.358951   -1.448545    1.909207
  B     0.615022    0.219200    2.597326
  B    -0.671413    1.327421   -3.598642
  B     0.238875    2.212083   -1.045215
  B     1.497532   -1.635495    1.083077
  B    -0.124871    1.507525    0.428583

----------------------------
CARTESIAN COORDINATES (A.U.)
----------------------------
  NO LB    ZA    FRAG    MASS        X           Y           Z
   0 B   5.0000    0    10.810   -2.131295   -2.938375    0.644570
   1 B   5.0000    0    10.810    1.915368   -1.054592   -0.320749
   2 B   5.0000    0    10.810   -3.607774   -0.600683    0.073210
   3 B   5.0000    0    10.810    4.088070    1.653450   -1.904416
   4 B   5.0000    0    10.810   -6.586132   -1.747650   -2.419311
   5 B   5.0000    0    10.810    2.704647    0.564108    1.329578
   6 B   5.0000    0    10.810    0.678319   -2.737352    3.607878
   7 B   5.0000    0    10.810    1.162224    0.414228    4.908236
   8 B   5.0000    0    10.810   -1.268787    2.508461   -6.800447
   9 B   5.0000    0    10.810    0.451408    4.180231   -1.975171
  10 B   5.0000    0    10.810    2.829924   -3.090637    2.046719
  11 B   5.0000    0    10.810   -0.235972    2.848810    0.809904

      -----------------------------------------------------------      
     |                   =====================                   |     
     |                           x T B                           |     
     |                   =====================                   |     
     |                         S. Grimme                         |     
     |          Mulliken Center for Theoretical Chemistry        |     
     |                    University of Bonn                     |     
      -----------------------------------------------------------      

   * xtb version 6.6.1 (unknown) compiled by 'builduser@buildhost' on 2023-08-07

   xtb is free software: you can redistribute it and/or modify it under
   the terms of the GNU Lesser General Public License as published by
   the Free Software Foundation, either version 3 of the License, or
   (at your option) any later version.
   
   xtb is distributed in the hope that it will be useful,
   but WITHOUT ANY WARRANTY; without even the implied warranty of
   MERCHANTABILITY or FITNESS FOR A PARTICULAR PURPOSE.  See the
   GNU Lesser General Public License for more details.
   
   Cite this work as:
   * C. Bannwarth, E. Caldeweyher, S. Ehlert, A. Hansen, P. Pracht,
     J. Seibert, S. Spicher, S. Grimme, WIREs Comput. Mol. Sci., 2020, 11,
     e01493. DOI: 10.1002/wcms.1493
   
   for GFN2-xTB:
   * C. Bannwarth, S. Ehlert and S. Grimme., J. Chem. Theory Comput., 2019,
     15, 1652-1671. DOI: 10.1021/acs.jctc.8b01176
   for GFN1-xTB:
   * S. Grimme, C. Bannwarth, P. Shushkov, J. Chem. Theory Comput., 2017,
     13, 1989-2009. DOI: 10.1021/acs.jctc.7b00118
   for GFN0-xTB:
   * P. Pracht, E. Caldeweyher, S. Ehlert, S. Grimme, ChemRxiv, 2019, preprint.
     DOI: 10.26434/chemrxiv.8326202.v1
   for GFN-FF:
   * S. Spicher and S. Grimme, Angew. Chem. Int. Ed., 2020, 59, 15665-15673.
     DOI: 10.1002/anie.202004239
   
   for ALPB and GBSA implicit solvation:
   * S. Ehlert, M. Stahn, S. Spicher, S. Grimme, J. Chem. Theory Comput.,
     2021, 17, 4250-4261. DOI: 10.1021/acs.jctc.1c00471
   
   for DFT-D4:
   * E. Caldeweyher, C. Bannwarth and S. Grimme, J. Chem. Phys., 2017,
     147, 034112. DOI: 10.1063/1.4993215
   * E. Caldeweyher, S. Ehlert, A. Hansen, H. Neugebauer, S. Spicher,
     C. Bannwarth and S. Grimme, J. Chem. Phys., 2019, 150, 154122.
     DOI: 10.1063/1.5090222
   * E. Caldeweyher, J.-M. Mewes, S. Ehlert and S. Grimme, Phys. Chem. Chem. Phys.
     2020, 22, 8499-8512. DOI: 10.1039/D0CP00502A
   
   for sTDA-xTB:
   * S. Grimme and C. Bannwarth, J. Chem. Phys., 2016, 145, 054103.
     DOI: 10.1063/1.4959605
   
   in the mass-spec context:
   * V. Asgeirsson, C. Bauer and S. Grimme, Chem. Sci., 2017, 8, 4879.
     DOI: 10.1039/c7sc00601b
   * J. Koopman and S. Grimme, ACS Omega 2019, 4, 12, 15120-15133.
     DOI: 10.1021/acsomega.9b02011
   
   for metadynamics refer to:
   * S. Grimme, J. Chem. Theory Comput., 2019, 155, 2847-2862
     DOI: 10.1021/acs.jctc.9b00143
   
   for SPH calculations refer to:
   * S. Spicher and S. Grimme, J. Chem. Theory Comput., 2021, 17, 1701-1714
     DOI: 10.1021/acs.jctc.0c01306
   
   with help from (in alphabetical order)
   P. Atkinson, C. Bannwarth, F. Bohle, G. Brandenburg, E. Caldeweyher
   M. Checinski, S. Dohm, S. Ehlert, S. Ehrlich, I. Gerasimov, C. Hölzer
   A. Katbashev, J. Koopman, C. Lavigne, S. Lehtola, F. März, M. Müller,
   F. Musil, H. Neugebauer, J. Pisarek, C. Plett, P. Pracht, F. Pultar,
   J. Seibert, P. Shushkov, S. Spicher, M. Stahn, M. Steiner, T. Strunk,
   J. Stückrath, T. Rose, and J. Unsleber
   
 * started run on 2026/04/17 at 12:14:14.854     

           -------------------------------------------------
          |                Calculation Setup                |
           -------------------------------------------------

          program call               : /usr/bin/xtb random_d1.90_004_m1_XTB.xyz --grad -c 0 -u 0 -P 1 --namespace random_d1.90_004_m1 --input random_d1.90_004_m1_XTB.input.tmp --acc 0.200000
          calculation namespace      : random_d1.90_004_m1
          coordinate file            : random_d1.90_004_m1_XTB.xyz
          omp threads                :                     1

   ID    Z sym.   atoms
    1    5 B      1-12

molecular fragmentation (1/2 indicates fragments):
121222222222
# atoms in fragment 1/2:     2    10
 fragment masses (1/2) :       21.62      108.11
CMA distance (Bohr)    :   4.068
constraining FC (au)   :  0.0500

           -------------------------------------------------
          |                 G F N 2 - x T B                 |
           -------------------------------------------------

        Reference                      10.1021/acs.jctc.8b01176
      * Hamiltonian:
        H0-scaling (s, p, d)           1.850000    2.230000    2.230000
        zeta-weighting                 0.500000
      * Dispersion:
        s8                             2.700000
        a1                             0.520000
        a2                             5.000000
        s9                             5.000000
      * Repulsion:
        kExp                           1.500000    1.000000
        rExp                           1.000000
      * Coulomb:
        alpha                          2.000000
        third order                    shell-resolved
        anisotropic                    true
        a3                             3.000000
        a5                             4.000000
        cn-shift                       1.200000
        cn-exp                         4.000000
        max-rad                        5.000000


          ...................................................
          :                      SETUP                      :
          :.................................................:
          :  # basis functions                  48          :
          :  # atomic orbitals                  48          :
          :  # shells                           24          :
          :  # electrons                        36          :
          :  max. iterations                   250          :
          :  Hamiltonian                  GFN2-xTB          :
          :  restarted?                      false          :
          :  GBSA solvation                  false          :
          :  PC potential                    false          :
          :  electronic temp.          300.0000000     K    :
          :  accuracy                    0.2000000          :
          :  -> integral cutoff          0.3198970E+02      :
          :  -> integral neglect         0.2000000E-08      :
          :  -> SCF convergence          0.2000000E-06 Eh   :
          :  -> wf. convergence          0.2000000E-04 e    :
          :  Broyden damping             0.4000000          :
          ...................................................

 iter      E             dE          RMSdq      gap      omega  full diag
   1    -11.3965449 -0.113965E+02  0.201E+01    0.08       0.0  T
   2      9.7153407  0.211119E+02  0.254E+01    0.36       1.0  T
   3     10.7967929  0.108145E+01  0.272E+01    0.20       1.0  T
   4     -6.1811916 -0.169780E+02  0.180E+01    0.32       1.0  T
   5     -3.4318645  0.274933E+01  0.177E+01    0.08       1.0  T
   6     -5.7472981 -0.231543E+01  0.153E+01    0.30       1.0  T
   7     -7.3595475 -0.161225E+01  0.143E+01    0.31       1.0  T
   8     -8.5162821 -0.115673E+01  0.143E+01    0.24       1.0  T
   9    -10.0782688 -0.156199E+01  0.109E+01    0.19       1.0  T
  10    -11.5982750 -0.152001E+01  0.989E+00    0.23       1.0  T
  11    -11.7879958 -0.189721E+00  0.932E+00    0.11       1.0  T
  12    -12.0697475 -0.281752E+00  0.847E+00    0.01       1.0  T
  13    -12.0303888  0.393587E-01  0.871E+00    0.04       1.0  T
  14    -12.0529642 -0.225754E-01  0.857E+00    0.02       1.0  T
  15    -12.0588910 -0.592681E-02  0.830E+00    0.21       1.0  T
  16    -12.3062557 -0.247365E+00  0.701E+00    0.28       1.0  T
  17    -11.9802794  0.325976E+00  0.757E+00    0.08       1.0  T
  18    -11.9673481  0.129313E-01  0.781E+00    0.06       1.0  T
  19    -12.4482343 -0.480886E+00  0.651E+00    0.11       1.0  T
  20    -12.5112524 -0.630181E-01  0.610E+00    0.18       1.0  T
  21    -12.4884830  0.227694E-01  0.595E+00    0.23       1.0  T
  22    -12.6525541 -0.164071E+00  0.554E+00    0.15       1.0  T
  23    -13.1998616 -0.547308E+00  0.463E+00    0.19       1.0  T
  24    -13.1935342  0.632748E-02  0.454E+00    0.19       1.0  T
  25    -13.1864346  0.709960E-02  0.420E+00    0.22       1.0  T
  26    -13.1829846  0.344999E-02  0.487E+00    0.18       1.0  T
  27    -13.3001308 -0.117146E+00  0.467E+00    0.19       1.0  T
  28    -13.3007526 -0.621773E-03  0.459E+00    0.19       1.0  T
  29    -13.3659522 -0.651996E-01  0.336E+00    0.18       1.0  T
  30    -13.3874504 -0.214982E-01  0.302E+00    0.15       1.0  T
  31    -13.3843991  0.305133E-02  0.309E+00    0.16       1.0  T
  32    -13.3858519 -0.145282E-02  0.304E+00    0.15       1.0  T
  33    -13.3890958 -0.324386E-02  0.299E+00    0.15       1.0  T
  34    -13.4241134 -0.350177E-01  0.242E+00    0.12       1.0  T
  35    -13.4211594  0.295404E-02  0.250E+00    0.13       1.0  T
  36    -13.4307335 -0.957408E-02  0.220E+00    0.11       1.0  T
  37    -13.4406785 -0.994506E-02  0.198E+00    0.12       1.0  T
  38    -13.4419993 -0.132081E-02  0.194E+00    0.11       1.0  T
  39    -13.4455284 -0.352909E-02  0.187E+00    0.11       1.0  T
  40    -13.4705803 -0.250519E-01  0.115E+00    0.10       1.0  T
  41    -13.4706483 -0.679250E-04  0.114E+00    0.10       1.0  T
  42    -13.4775656 -0.691737E-02  0.921E-01    0.10       1.0  T
  43    -13.4779864 -0.420771E-03  0.915E-01    0.10       1.0  T
  44    -13.4840639 -0.607751E-02  0.799E-01    0.09       1.0  T
  45    -13.4843791 -0.315142E-03  0.776E-01    0.09       1.0  T
  46    -13.4959409 -0.115619E-01  0.402E-01    0.09       1.0  T
  47    -13.4960584 -0.117506E-03  0.397E-01    0.09       1.0  T
  48    -13.4966447 -0.586250E-03  0.371E-01    0.09       1.0  T
  49    -13.4962225  0.422177E-03  0.384E-01    0.09       1.0  T
  50    -13.4962882 -0.656940E-04  0.383E-01    0.09       1.0  T
  51    -13.4969297 -0.641437E-03  0.346E-01    0.09       1.0  T
  52    -13.4975176 -0.587935E-03  0.280E-01    0.10       1.0  T
  53    -13.4980691 -0.551529E-03  0.267E-01    0.10       1.0  T
  54    -13.4982384 -0.169245E-03  0.223E-01    0.10       1.0  T
  55    -13.4978625  0.375853E-03  0.253E-01    0.10       1.0  T
  56    -13.4972294  0.633091E-03  0.319E-01    0.10       1.0  T
  57    -13.4981138 -0.884361E-03  0.179E-01    0.10       1.0  T
  58    -13.4982420 -0.128194E-03  0.115E-01    0.10       1.0  T
  59    -13.4981170  0.125008E-03  0.130E-01    0.10       1.0  T
  60    -13.4981513 -0.343670E-04  0.116E-01    0.10       1.0  T
  61    -13.4982148 -0.634751E-04  0.101E-01    0.10       1.0  T
  62    -13.4982292 -0.144255E-04  0.958E-02    0.10       1.0  T
  63    -13.4982546 -0.253605E-04  0.851E-02    0.10       1.0  T
  64    -13.4983022 -0.475815E-04  0.669E-02    0.10       1.0  T
  65    -13.4983212 -0.190660E-04  0.568E-02    0.10       1.0  T
  66    -13.4983339 -0.127014E-04  0.469E-02    0.10       1.0  T
  67    -13.4983424 -0.849364E-05  0.381E-02    0.10       1.0  T
  68    -13.4983486 -0.613422E-05  0.296E-02    0.10       1.0  T
  69    -13.4983525 -0.397464E-05  0.211E-02    0.10       1.4  T
  70    -13.4983540 -0.147462E-05  0.164E-02    0.10       1.8  T
  71    -13.4983545 -0.525157E-06  0.134E-02    0.10       2.2  T
  72    -13.4983550 -0.496135E-06  0.968E-03    0.10       3.0  T
  73    -13.4983554 -0.363661E-06  0.690E-03    0.10       4.2  T
  74    -13.4983557 -0.296500E-06  0.446E-03    0.10       6.5  T
  75    -13.4983558 -0.120212E-06  0.293E-03    0.10       9.9  T
  76    -13.4983558 -0.155875E-07  0.245E-03    0.10      11.8  T
  77    -13.4983559 -0.396839E-07  0.165E-03    0.10      17.5  T
  78    -13.4983559 -0.319480E-07  0.618E-04    0.10      46.7  T
  79    -13.4983559 -0.509236E-08  0.401E-04    0.10      72.0  T
  80    -13.4983559 -0.805757E-09  0.394E-04    0.10      73.2  T
  81    -13.4983559 -0.241061E-09  0.323E-04    0.10      89.4  T
  82    -13.4983559 -0.345244E-09  0.223E-04    0.10     129.5  T
  83    -13.4983559 -0.146805E-09  0.113E-04    0.10     256.5  T
  84    -13.4983559  0.153477E-10  0.691E-05    0.10     417.7  T

   *** convergence criteria satisfied after 84 iterations ***

         #    Occupation            Energy/Eh            Energy/eV
      -------------------------------------------------------------
         1        2.0000           -0.4388893             -11.9428
       ...           ...                  ...                  ...
        12        2.0000           -0.2878544              -7.8329
        13        2.0000           -0.2793331              -7.6010
        14        2.0000           -0.2703355              -7.3562
        15        2.0000           -0.2570293              -6.9941
        16        2.0000           -0.2535392              -6.8992
        17        1.9684           -0.2438336              -6.6350
        18        1.7596           -0.2417979              -6.5797 (HOMO)
        19        0.2717           -0.2381493              -6.4804 (LUMO)
        20        0.0002           -0.2311972              -6.2912
        21        0.0001           -0.2300020              -6.2587
        22        0.0000           -0.2267003              -6.1688
        23                         -0.2230823              -6.0704
       ...                                ...                  ...
        48                          2.1571358              58.6987
      -------------------------------------------------------------
                  HL-Gap            0.0036486 Eh            0.0993 eV
             Fermi-level           -0.2399070 Eh           -6.5282 eV

 SCC (total)                   0 d,  0 h,  0 min,  0.098 sec
 SCC setup                      ...        0 min,  0.000 sec (  0.143%)
 Dispersion                     ...        0 min,  0.000 sec (  0.082%)
 classical contributions        ...        0 min,  0.000 sec (  0.031%)
 integral evaluation            ...        0 min,  0.002 sec (  2.258%)
 iterations                     ...        0 min,  0.088 sec ( 90.537%)
 molecular gradient             ...        0 min,  0.007 sec (  6.691%)
 printout                       ...        0 min,  0.000 sec (  0.236%)

         :::::::::::::::::::::::::::::::::::::::::::::::::::::
         ::                     SUMMARY                     ::
         :::::::::::::::::::::::::::::::::::::::::::::::::::::
         :: total energy             -13.295264043106 Eh    ::
         :: gradient norm              0.572369974218 Eh/a0 ::
         :: HOMO-LUMO gap              0.099283710789 eV    ::
         ::.................................................::
         :: SCC energy               -13.498355911834 Eh    ::
         :: -> isotropic ES            0.055916669636 Eh    ::
         :: -> anisotropic ES          0.000312569017 Eh    ::
         :: -> anisotropic XC         -0.029921590987 Eh    ::
         :: -> dispersion             -0.018263417648 Eh    ::
         :: repulsion energy           0.202992641801 Eh    ::
         :: add. restraining           0.000000000000 Eh    ::
         :: total charge               0.000000000197 e     ::
         :::::::::::::::::::::::::::::::::::::::::::::::::::::


Property printout bound to 'properties.out'

           -------------------------------------------------
          | TOTAL ENERGY              -13.295264043106 Eh   |
          | GRADIENT NORM               0.572369974218 Eh/α |
          | HOMO-LUMO GAP               0.099283710789 eV   |
           -------------------------------------------------

------------------------------------------------------------------------
 * finished run on 2026/04/17 at 12:14:14.963     
------------------------------------------------------------------------
 total:
 * wall-time:     0 d,  0 h,  0 min,  0.109 sec
 *  cpu-time:     0 d,  0 h,  0 min,  0.109 sec
 * ratio c/w:     1.000 speedup
 SCF:
 * wall-time:     0 d,  0 h,  0 min,  0.098 sec
 *  cpu-time:     0 d,  0 h,  0 min,  0.098 sec
 * ratio c/w:     1.000 speedup


-------------------------   --------------------
FINAL SINGLE POINT ENERGY       -13.295264043110
-------------------------   --------------------


-------------
DIPOLE MOMENT
-------------
                                X             Y             Z
Total Dipole Moment    :      1.51600       0.13200       1.82800
                        -----------------------------------------
Magnitude (a.u.)       :      2.37850
Magnitude (Debye)      :      6.04567


------------------
CARTESIAN GRADIENT
------------------

   1   B   :   -0.039046383   -0.033763264   -0.031278970
   2   B   :    0.078127335    0.246409865    0.249804593
   3   B   :    0.027070673    0.021256583    0.043165874
   4   B   :    0.078543775    0.008171930   -0.048775467
   5   B   :   -0.045525128   -0.024147295   -0.038482912
   6   B   :   -0.104905512   -0.268827709   -0.241134053
   7   B   :    0.077916495   -0.049272907   -0.071370483
   8   B   :    0.003399744    0.042216319    0.075213138
   9   B   :   -0.012929183   -0.014313843   -0.039496855
  10   B   :   -0.007856920    0.063012756   -0.019189672
  11   B   :   -0.039107024   -0.008906683    0.077721053
  12   B   :   -0.015687871    0.018164250    0.043823754

Difference to translation invariance:
           :    0.0000000000   -0.0000000000    0.0000000000

Difference to rotation invariance:
           :   -0.0000000137   -0.0000000288    0.0000000496

Norm of the Cartesian gradient     ...    0.5723699742
RMS gradient                       ...    0.0953949957
MAX gradient                       ...    0.2688277094
------------------------------------------------------------------------------
                         ORCA GEOMETRY RELAXATION STEP
------------------------------------------------------------------------------

Reading the OPT-File                    .... done
Getting information on internals        .... done
Copying old internal coords+grads       .... done
Making the new internal coordinates     .... (2022 redundants) done
Validating the new internal coordinates .... (2022 redundants) done
Calculating the B-matrix                .... done
Calculating the G,G- and P matrices     .... done
Transforming gradient to internals      .... done
Projecting the internal gradient        .... done
Number of atoms                         ....  12
Number of internal coordinates          .... 127
Current Energy                          ....   -13.295264043 Eh
Current gradient norm                   ....     0.572369974 Eh/bohr
Maximum allowed component of the step   ....  0.300
Current trust radius                    ....  0.300
Evaluating the initial hessian          ....  (Almloef) done
Projecting the Hessian                  .... done
Forming the augmented Hessian           .... done
Diagonalizing the augmented Hessian     .... done
Last element of RFO vector              ....  0.800400093
Lowest eigenvalues of augmented Hessian:
 -0.175721050  0.010000000  0.012907588  0.015676095  0.019872889
Length of the computed step             ....  0.748958149
Warning: the length of the step is outside the trust region - taking restricted step instead
The input lambda is                     ....     0.009000
   iter:   5  x=    0.001778  g=27415.210413 f(x)=    80.957697
   iter:  10  x=   -0.110842  g=   38.308040 f(x)=     1.995475
   iter:  15  x=   -0.623299  g=    0.278051 f(x)=     0.013883
The output lambda is                    ....    -0.629218 (19 iterations)
The final length of the internal step   ....  0.300000000
Converting the step to Cartesian space:
 Initial RMS(Int)=    0.0266206953
Transforming coordinates:
 Iter   0:  RMS(Cart)=    0.0812316708 RMS(Int)=    0.0266297083
 Iter   5:  RMS(Cart)=    0.0000000566 RMS(Int)=    0.0000000848
done
Storing new coordinates                 .... done

                                .--------------------.
          ----------------------|Geometry convergence|-------------------------
          Item                value                   Tolerance       Converged
          ---------------------------------------------------------------------
          RMS gradient        0.0233386258            0.0000300000      NO
          MAX gradient        0.1116538628            0.0001000000      NO
          RMS step            0.0266206953            0.0006000000      NO
          MAX step            0.1086277084            0.0010000000      NO
          -------------------------------------------------------------------------
          ........................................................
          Max(Bonds)      0.0575      Max(Angles)    3.54
          Max(Dihed)        3.15      Max(Improp)    0.00
          ---------------------------------------------------------------------

The optimization has not yet converged - more geometry cycles are needed


    ---------------------------------------------------------------------------
                         Redundant Internal Coordinates
                            (Angstroem and degrees)

        Definition                    Value    dE/dq     Step     New-Value
    ----------------------------------------------------------------------------
     1. B(B   1,B   0)                2.4167  0.039022 -0.0258    2.3908   
     2. B(B   2,B   0)                1.4940  0.001257 -0.0018    1.4923   
     3. B(B   3,B   1)                2.0194  0.009387 -0.0116    2.0077   
     4. B(B   4,B   2)                2.1429  0.064009 -0.0497    2.0933   
     5. B(B   5,B   3)                1.9486  0.002497 -0.0092    1.9393   
     6. B(B   5,B   1)                1.2926 -0.111654  0.0519    1.3445   
     7. B(B   6,B   0)                2.1635 -0.007379 -0.0002    2.1633   
     8. B(B   7,B   6)                1.8222  0.016245 -0.0164    1.8058   
     9. B(B   7,B   5)                2.0637  0.043264 -0.0324    2.0313   
    10. B(B   9,B   8)                2.8515  0.043936 -0.0364    2.8152   
    11. B(B  10,B   1)                1.7218  0.006853 -0.0059    1.7159   
    12. B(B  10,B   6)                1.4191 -0.044496  0.0216    1.4406   
    13. B(B  10,B   0)                2.7294  0.002251 -0.0061    2.7233   
    14. B(B  10,B   5)                1.9720 -0.026046  0.0099    1.9819   
    15. B(B  11,B   2)                2.5822  0.005787 -0.0092    2.5730   
    16. B(B  11,B   9)                1.6736  0.067666 -0.0387    1.6348   
    17. B(B  11,B   5)                1.9897  0.080220 -0.0575    1.9322   
    18. A(B   6,B   0,B  10)           31.06 -0.011532    0.68     31.74   
    19. A(B   1,B   0,B   2)           94.54  0.009909   -0.58     93.95   
    20. A(B   1,B   0,B   6)           61.57 -0.012019    0.69     62.27   
    21. A(B   2,B   0,B   6)          117.73  0.016929   -0.79    116.94   
    22. A(B   2,B   0,B  10)          125.63  0.014318   -0.71    124.92   
    23. A(B   1,B   0,B  10)           38.49 -0.000133    0.03     38.52   
    24. A(B   0,B   1,B  10)           80.63 -0.011126    0.65     81.27   
    25. A(B   3,B   1,B  10)          125.87  0.023429   -1.03    124.84   
    26. A(B   5,B   1,B  10)           80.34  0.012156   -0.62     79.72   
    27. A(B   0,B   1,B   3)          152.25 -0.006695    0.01    152.25   
    28. A(B   0,B   1,B   5)          114.64  0.006339   -0.43    114.21   
    29. A(B   3,B   1,B   5)           68.05  0.011034   -0.66     67.38   
    30. A(B   0,B   2,B  11)          101.15 -0.001734   -0.22    100.93   
    31. A(B   4,B   2,B  11)          143.26 -0.000546   -0.02    143.24   
    32. A(B   0,B   2,B   4)          105.94  0.004756   -0.01    105.93   
    33. A(B   1,B   3,B   5)           37.97 -0.032733    1.80     39.77   
    34. A(B   1,B   5,B   3)           73.98  0.021699   -1.13     72.85   
    35. A(B   7,B   5,B  10)           78.41 -0.003722    0.20     78.60   
    36. A(B   3,B   5,B  10)          116.52  0.036943   -1.75    114.77   
    37. A(B   3,B   5,B   7)          164.99 -0.034516    1.64    166.63   
    38. A(B  10,B   5,B  11)          130.45  0.006396   -0.19    130.26   
    39. A(B   1,B   5,B  10)           59.40  0.018878   -0.99     58.41   
    40. A(B   7,B   5,B  11)           80.84 -0.009342    0.71     81.55   
    41. A(B   3,B   5,B  11)           89.58 -0.007876   -0.06     89.52   
    42. A(B   1,B   5,B   7)          117.82  0.009906   -0.49    117.34   
    43. A(B   1,B   5,B  11)           93.24  0.004196   -0.24     93.01   
    44. A(B   7,B   6,B  10)          103.16  0.010568   -0.66    102.50   
    45. A(B   0,B   6,B  10)           97.06  0.017085   -0.99     96.07   
    46. A(B   0,B   6,B   7)          114.54 -0.013929    0.67    115.20   
    47. A(B   5,B   7,B   6)           75.18 -0.020941    1.36     76.54   
    48. A(B   8,B   9,B  11)          126.06  0.000576   -0.04    126.02   
    49. A(B   5,B  10,B   6)           87.47  0.010464   -0.71     86.76   
    50. A(B   1,B  10,B   6)           96.64  0.000280   -0.10     96.54   
    51. A(B   1,B  10,B   5)           40.26 -0.031034    1.62     41.87   
    52. A(B   0,B  10,B   6)           51.87 -0.005553    0.31     52.19   
    53. A(B   0,B  10,B   5)           83.48 -0.006909    0.22     83.70   
    54. A(B   0,B  10,B   1)           60.88  0.011259   -0.68     60.20   
    55. A(B   2,B  11,B   5)           97.57 -0.016064    1.16     98.73   
    56. A(B   5,B  11,B   9)          101.98  0.045838   -3.54     98.44   
    57. A(B   2,B  11,B   9)          108.35 -0.003568    0.45    108.80   
    58. D(B   5,B   1,B   0,B  10)    -74.77 -0.006185    0.25    -74.52   
    59. D(B   3,B   1,B   0,B   6)   -136.26 -0.042851    2.75   -133.51   
    60. D(B   3,B   1,B   0,B  10)   -164.10 -0.039456    2.51   -161.59   
    61. D(B   5,B   1,B   0,B   2)     72.27  0.006838   -0.24     72.03   
    62. D(B   5,B   1,B   0,B   6)    -46.93 -0.009581    0.49    -46.44   
    63. D(B   3,B   1,B   0,B   2)    -17.06 -0.026433    2.02    -15.04   
    64. D(B  11,B   2,B   0,B   6)     35.27  0.002580   -0.17     35.09   
    65. D(B  11,B   2,B   0,B   1)    -24.88  0.014396   -0.81    -25.69   
    66. D(B   4,B   2,B   0,B  10)    154.67  0.012217   -0.97    153.70   
    67. D(B   4,B   2,B   0,B   1)    130.05  0.016795   -1.09    128.95   
    68. D(B   4,B   2,B   0,B   6)   -169.81  0.004979   -0.46   -170.26   
    69. D(B   5,B   3,B   1,B  10)    -59.02 -0.009389    0.74    -58.28   
    70. D(B   5,B   3,B   1,B   0)    101.49  0.034275   -2.15     99.34   
    71. D(B   3,B   5,B   1,B   0)   -149.86  0.005030    0.13   -149.73   
    72. D(B   3,B   5,B   1,B  10)    135.19  0.013286   -0.41    134.79   
    73. D(B  10,B   5,B   3,B   1)     42.68  0.014962   -0.97     41.71   
    74. D(B   7,B   5,B   3,B   1)   -143.56 -0.029406    2.11   -141.44   
    75. D(B  10,B   5,B   1,B   0)     74.94 -0.008256    0.54     75.48   
    76. D(B  10,B   5,B   1,B   3)   -135.19 -0.013286    0.41   -134.79   
    77. D(B   7,B   5,B   1,B   0)     20.12 -0.011600    0.75     20.87   
    78. D(B   7,B   5,B   1,B  10)    -54.82 -0.003345    0.21    -54.61   
    79. D(B  11,B   5,B   3,B   1)    -93.50 -0.006096    0.20    -93.30   
    80. D(B   7,B   5,B   1,B   3)    169.98 -0.016630    0.62    170.60   
    81. D(B  10,B   6,B   0,B   1)    -34.28 -0.008554    0.42    -33.86   
    82. D(B   7,B   6,B   0,B   2)     -5.76  0.014145   -0.85     -6.61   
    83. D(B   7,B   6,B   0,B   1)     73.70  0.008439   -0.65     73.04   
    84. D(B  10,B   6,B   0,B   2)   -113.74 -0.002848    0.23   -113.51   
    85. D(B   7,B   6,B   0,B  10)    107.98  0.016993   -1.08    106.90   
    86. D(B   6,B   7,B   5,B  10)    -23.02  0.003025   -0.22    -23.24   
    87. D(B   6,B   7,B   5,B   3)    162.68  0.041749   -2.96    159.72   
    88. D(B   6,B   7,B   5,B   1)     22.89  0.017770   -1.03     21.86   
    89. D(B   5,B   7,B   6,B   0)    -71.08 -0.017644    1.14    -69.93   
    90. D(B   5,B   7,B   6,B  10)     33.14  0.002735   -0.11     33.02   
    91. D(B   6,B   7,B   5,B  11)    111.73  0.015904   -0.84    110.89   
    92. D(B   0,B  10,B   6,B   7)   -117.30  0.006420   -0.21   -117.51   
    93. D(B   5,B  10,B   6,B   0)     83.69 -0.017234    0.85     84.55   
    94. D(B   5,B  10,B   6,B   7)    -33.61 -0.010814    0.64    -32.97   
    95. D(B   1,B  10,B   6,B   7)    -72.88  0.018685   -0.87    -73.75   
    96. D(B   6,B  10,B   5,B  11)    -38.07  0.025467   -1.59    -39.66   
    97. D(B   6,B  10,B   5,B   7)     29.07  0.004551   -0.26     28.81   
    98. D(B   6,B  10,B   5,B   3)   -152.58 -0.010834    0.73   -151.85   
    99. D(B   6,B  10,B   5,B   1)   -103.37  0.002247   -0.19   -103.56   
   100. D(B   1,B  10,B   5,B  11)     65.30  0.023220   -1.40     63.90   
   101. D(B   1,B  10,B   5,B   7)    132.44  0.002304   -0.07    132.37   
   102. D(B   1,B  10,B   5,B   3)    -49.20 -0.013081    0.92    -48.29   
   103. D(B   0,B  10,B   1,B   3)    170.94  0.017352   -1.28    169.66   
   104. D(B   6,B  10,B   1,B   0)    -39.07 -0.001530    0.04    -39.03   
   105. D(B   6,B  10,B   1,B   5)     78.10  0.004882   -0.42     77.68   
   106. D(B   6,B  10,B   1,B   3)    131.87  0.015822   -1.24    130.62   
   107. D(B   5,B  10,B   1,B   0)   -117.17 -0.006412    0.46   -116.72   
   108. D(B   5,B  10,B   1,B   3)     53.77  0.010939   -0.83     52.94   
   109. D(B   6,B  10,B   0,B   2)     85.40  0.001340    0.12     85.52   
   110. D(B   5,B  10,B   0,B   1)     35.35 -0.027778    1.50     36.86   
   111. D(B   1,B  10,B   6,B   0)     44.43  0.012266   -0.66     43.77   
   112. D(B   5,B  10,B   0,B   6)    -91.91 -0.019615    1.13    -90.78   
   113. D(B   5,B  10,B   0,B   2)     -6.50 -0.018275    1.25     -5.25   
   114. D(B   1,B  10,B   0,B   6)   -127.26  0.008163   -0.37   -127.63   
   115. D(B   1,B  10,B   0,B   2)    -41.86  0.009503   -0.25    -42.11   
   116. D(B   9,B  11,B   5,B   1)    -74.71  0.008707   -0.52    -75.24   
   117. D(B   9,B  11,B   2,B   4)    -24.84  0.034298   -2.61    -27.44   
   118. D(B   9,B  11,B   2,B   0)    112.23  0.041013   -3.15    109.08   
   119. D(B   5,B  11,B   2,B   4)   -130.18 -0.008194    0.66   -129.52   
   120. D(B   5,B  11,B   2,B   0)      6.88 -0.001478    0.12      7.00   
   121. D(B   2,B  11,B   9,B   8)     -7.70 -0.002369    0.24     -7.46   
   122. D(B   5,B  11,B   9,B   8)     94.55 -0.003279    0.27     94.82   
   123. D(B   2,B  11,B   5,B   3)    109.88  0.031863   -1.65    108.23   
   124. D(B   2,B  11,B   5,B   1)     35.95  0.010705   -0.52     35.43   
   125. D(B   9,B  11,B   5,B  10)   -126.27 -0.019113    1.04   -125.23   
   126. D(B   9,B  11,B   5,B   7)    167.62 -0.000882   -0.05    167.56   
   127. D(B   9,B  11,B   5,B   3)     -0.78  0.029865   -1.66     -2.44   
    ----------------------------------------------------------------------------

Geometry step timings:
Preparation and reading OPT file:      0.000 s ( 0.612 %)
Internal coordinates            :      0.000 s ( 0.612 %)
B/P matrices and projection     :      0.001 s (21.092 %)
Hessian update/contruction      :      0.001 s (13.583 %)
Making the step                 :      0.003 s (45.570 %)
Converting the step to Cartesian:      0.000 s ( 2.759 %)
Storing new data                :      0.000 s ( 0.811 %)
Checking convergence            :      0.000 s ( 0.725 %)
Final printing                  :      0.001 s (14.123 %)
Total time                      :      0.007 s

Time for energy+gradient        :      0.120 s
Time for complete geometry iter :      0.128 s

         *************************************************************
         *                GEOMETRY OPTIMIZATION CYCLE   2            *
         *************************************************************
---------------------------------
CARTESIAN COORDINATES (ANGSTROEM)
---------------------------------
  B    -1.134437   -1.556537    0.329835
  B     0.962692   -0.546073   -0.215247
  B    -1.920565   -0.319467    0.049354
  B     2.072552    0.912305   -1.035363
  B    -3.461766   -0.898888   -1.243200
  B     1.397246    0.345319    0.692061
  B     0.360499   -1.435332    1.889297
  B     0.630994    0.216018    2.568819
  B    -0.544564    1.245009   -3.522303
  B     0.277412    2.151056   -0.986842
  B     1.498455   -1.606101    1.022974
  B    -0.138518    1.492692    0.450615

----------------------------
CARTESIAN COORDINATES (A.U.)
----------------------------
  NO LB    ZA    FRAG    MASS        X           Y           Z
   0 B   5.0000    0    10.810   -2.143775   -2.941429    0.623298
   1 B   5.0000    0    10.810    1.819224   -1.031929   -0.406759
   2 B   5.0000    0    10.810   -3.629341   -0.603704    0.093266
   3 B   5.0000    0    10.810    3.916556    1.724006   -1.956552
   4 B   5.0000    0    10.810   -6.541790   -1.698652   -2.349308
   5 B   5.0000    0    10.810    2.640413    0.652558    1.307806
   6 B   5.0000    0    10.810    0.681243   -2.712384    3.570255
   7 B   5.0000    0    10.810    1.192406    0.408214    4.854364
   8 B   5.0000    0    10.810   -1.029077    2.352726   -6.656188
   9 B   5.0000    0    10.810    0.524232    4.064906   -1.864861
  10 B   5.0000    0    10.810    2.831669   -3.035091    1.933140
  11 B   5.0000    0    10.810   -0.261760    2.820780    0.851540

      -----------------------------------------------------------      
     |                   =====================                   |     
     |                           x T B                           |     
     |                   =====================                   |     
     |                         S. Grimme                         |     
     |          Mulliken Center for Theoretical Chemistry        |     
     |                    University of Bonn                     |     
      -----------------------------------------------------------      

   * xtb version 6.6.1 (unknown) compiled by 'builduser@buildhost' on 2023-08-07

   xtb is free software: you can redistribute it and/or modify it under
   the terms of the GNU Lesser General Public License as published by
   the Free Software Foundation, either version 3 of the License, or
   (at your option) any later version.
   
   xtb is distributed in the hope that it will be useful,
   but WITHOUT ANY WARRANTY; without even the implied warranty of
   MERCHANTABILITY or FITNESS FOR A PARTICULAR PURPOSE.  See the
   GNU Lesser General Public License for more details.
   
   Cite this work as:
   * C. Bannwarth, E. Caldeweyher, S. Ehlert, A. Hansen, P. Pracht,
     J. Seibert, S. Spicher, S. Grimme, WIREs Comput. Mol. Sci., 2020, 11,
     e01493. DOI: 10.1002/wcms.1493
   
   for GFN2-xTB:
   * C. Bannwarth, S. Ehlert and S. Grimme., J. Chem. Theory Comput., 2019,
     15, 1652-1671. DOI: 10.1021/acs.jctc.8b01176
   for GFN1-xTB:
   * S. Grimme, C. Bannwarth, P. Shushkov, J. Chem. Theory Comput., 2017,
     13, 1989-2009. DOI: 10.1021/acs.jctc.7b00118
   for GFN0-xTB:
   * P. Pracht, E. Caldeweyher, S. Ehlert, S. Grimme, ChemRxiv, 2019, preprint.
     DOI: 10.26434/chemrxiv.8326202.v1
   for GFN-FF:
   * S. Spicher and S. Grimme, Angew. Chem. Int. Ed., 2020, 59, 15665-15673.
     DOI: 10.1002/anie.202004239
   
   for ALPB and GBSA implicit solvation:
   * S. Ehlert, M. Stahn, S. Spicher, S. Grimme, J. Chem. Theory Comput.,
     2021, 17, 4250-4261. DOI: 10.1021/acs.jctc.1c00471
   
   for DFT-D4:
   * E. Caldeweyher, C. Bannwarth and S. Grimme, J. Chem. Phys., 2017,
     147, 034112. DOI: 10.1063/1.4993215
   * E. Caldeweyher, S. Ehlert, A. Hansen, H. Neugebauer, S. Spicher,
     C. Bannwarth and S. Grimme, J. Chem. Phys., 2019, 150, 154122.
     DOI: 10.1063/1.5090222
   * E. Caldeweyher, J.-M. Mewes, S. Ehlert and S. Grimme, Phys. Chem. Chem. Phys.
     2020, 22, 8499-8512. DOI: 10.1039/D0CP00502A
   
   for sTDA-xTB:
   * S. Grimme and C. Bannwarth, J. Chem. Phys., 2016, 145, 054103.
     DOI: 10.1063/1.4959605
   
   in the mass-spec context:
   * V. Asgeirsson, C. Bauer and S. Grimme, Chem. Sci., 2017, 8, 4879.
     DOI: 10.1039/c7sc00601b
   * J. Koopman and S. Grimme, ACS Omega 2019, 4, 12, 15120-15133.
     DOI: 10.1021/acsomega.9b02011
   
   for metadynamics refer to:
   * S. Grimme, J. Chem. Theory Comput., 2019, 155, 2847-2862
     DOI: 10.1021/acs.jctc.9b00143
   
   for SPH calculations refer to:
   * S. Spicher and S. Grimme, J. Chem. Theory Comput., 2021, 17, 1701-1714
     DOI: 10.1021/acs.jctc.0c01306
   
   with help from (in alphabetical order)
   P. Atkinson, C. Bannwarth, F. Bohle, G. Brandenburg, E. Caldeweyher
   M. Checinski, S. Dohm, S. Ehlert, S. Ehrlich, I. Gerasimov, C. Hölzer
   A. Katbashev, J. Koopman, C. Lavigne, S. Lehtola, F. März, M. Müller,
   F. Musil, H. Neugebauer, J. Pisarek, C. Plett, P. Pracht, F. Pultar,
   J. Seibert, P. Shushkov, S. Spicher, M. Stahn, M. Steiner, T. Strunk,
   J. Stückrath, T. Rose, and J. Unsleber
   
 * started run on 2026/04/17 at 12:14:14.982     

           -------------------------------------------------
          |                Calculation Setup                |
           -------------------------------------------------

          program call               : /usr/bin/xtb random_d1.90_004_m1_XTB.xyz --grad -c 0 -u 0 -P 1 --namespace random_d1.90_004_m1 --input random_d1.90_004_m1_XTB.input.tmp --acc 0.200000
          calculation namespace      : random_d1.90_004_m1
          coordinate file            : random_d1.90_004_m1_XTB.xyz
          omp threads                :                     1

   ID    Z sym.   atoms
    1    5 B      1-12

molecular fragmentation (1/2 indicates fragments):
121222222222
# atoms in fragment 1/2:     2    10
 fragment masses (1/2) :       21.62      108.11
CMA distance (Bohr)    :   4.088
constraining FC (au)   :  0.0500

           -------------------------------------------------
          |                 G F N 2 - x T B                 |
           -------------------------------------------------

        Reference                      10.1021/acs.jctc.8b01176
      * Hamiltonian:
        H0-scaling (s, p, d)           1.850000    2.230000    2.230000
        zeta-weighting                 0.500000
      * Dispersion:
        s8                             2.700000
        a1                             0.520000
        a2                             5.000000
        s9                             5.000000
      * Repulsion:
        kExp                           1.500000    1.000000
        rExp                           1.000000
      * Coulomb:
        alpha                          2.000000
        third order                    shell-resolved
        anisotropic                    true
        a3                             3.000000
        a5                             4.000000
        cn-shift                       1.200000
        cn-exp                         4.000000
        max-rad                        5.000000

q/qsh data taken from xtbrestart
CAMM data taken from xtbrestart

          ...................................................
          :                      SETUP                      :
          :.................................................:
          :  # basis functions                  48          :
          :  # atomic orbitals                  48          :
          :  # shells                           24          :
          :  # electrons                        36          :
          :  max. iterations                   250          :
          :  Hamiltonian                  GFN2-xTB          :
          :  restarted?                       true          :
          :  GBSA solvation                  false          :
          :  PC potential                    false          :
          :  electronic temp.          300.0000000     K    :
          :  accuracy                    0.2000000          :
          :  -> integral cutoff          0.3198970E+02      :
          :  -> integral neglect         0.2000000E-08      :
          :  -> SCF convergence          0.2000000E-06 Eh   :
          :  -> wf. convergence          0.2000000E-04 e    :
          :  Broyden damping             0.4000000          :
          ...................................................

 iter      E             dE          RMSdq      gap      omega  full diag
   1    -13.5279838 -0.135280E+02  0.163E+00    0.12       0.0  T
   2    -13.0899210  0.438063E+00  0.524E+00    0.09       1.0  T
   3    -13.4493517 -0.359431E+00  0.207E+00    0.23       1.0  T
   4    -11.6462238  0.180313E+01  0.996E+00    0.08       1.0  T
   5    -13.1019705 -0.145575E+01  0.445E+00    0.09       1.0  T
   6    -11.7768410  0.132513E+01  0.931E+00    0.13       1.0  T
   7    -12.7453113 -0.968470E+00  0.647E+00    0.14       1.0  T
   8    -13.2665736 -0.521262E+00  0.391E+00    0.02       1.0  T
   9    -12.9215348  0.345039E+00  0.556E+00    0.10       1.0  T
  10    -13.0890544 -0.167520E+00  0.476E+00    0.09       1.0  T
  11    -13.5118338 -0.422779E+00  0.101E+00    0.09       1.0  T
  12    -13.5233581 -0.115243E-01  0.984E-01    0.13       1.0  T
  13    -13.5280852 -0.472709E-02  0.833E-01    0.13       1.0  T
  14    -13.5253567  0.272848E-02  0.882E-01    0.13       1.0  T
  15    -13.5256669 -0.310176E-03  0.916E-01    0.14       1.0  T
  16    -13.5244356  0.123131E-02  0.881E-01    0.13       1.0  T
  17    -13.5249657 -0.530136E-03  0.853E-01    0.13       1.0  T
  18    -13.5263397 -0.137395E-02  0.781E-01    0.13       1.0  T
  19    -13.5274889 -0.114919E-02  0.670E-01    0.13       1.0  T
  20    -13.5283465 -0.857683E-03  0.606E-01    0.13       1.0  T
  21    -13.5287523 -0.405797E-03  0.569E-01    0.13       1.0  T
  22    -13.5304064 -0.165405E-02  0.435E-01    0.13       1.0  T
  23    -13.5316567 -0.125027E-02  0.347E-01    0.13       1.0  T
  24    -13.5326247 -0.968072E-03  0.239E-01    0.12       1.0  T
  25    -13.5325350  0.897162E-04  0.252E-01    0.12       1.0  T
  26    -13.5328183 -0.283310E-03  0.206E-01    0.12       1.0  T
  27    -13.5329772 -0.158850E-03  0.179E-01    0.12       1.0  T
  28    -13.5332049 -0.227759E-03  0.145E-01    0.12       1.0  T
  29    -13.5332566 -0.517055E-04  0.138E-01    0.12       1.0  T
  30    -13.5333288 -0.721908E-04  0.122E-01    0.12       1.0  T
  31    -13.5334107 -0.818343E-04  0.988E-02    0.11       1.0  T
  32    -13.5334675 -0.568183E-04  0.808E-02    0.11       1.0  T
  33    -13.5335287 -0.612490E-04  0.551E-02    0.11       1.0  T
  34    -13.5335557 -0.269225E-04  0.387E-02    0.11       1.0  T
  35    -13.5335654 -0.975255E-05  0.301E-02    0.11       1.0  T
  36    -13.5335707 -0.534013E-05  0.241E-02    0.11       1.2  T
  37    -13.5335742 -0.349214E-05  0.191E-02    0.11       1.5  T
  38    -13.5335778 -0.360359E-05  0.125E-02    0.11       2.3  T
  39    -13.5335789 -0.107762E-05  0.979E-03    0.11       2.9  T
  40    -13.5335801 -0.116373E-05  0.543E-03    0.11       5.3  T
  41    -13.5335803 -0.246324E-06  0.382E-03    0.11       7.6  T
  42    -13.5335805 -0.144387E-06  0.220E-03    0.11      13.1  T
  43    -13.5335805 -0.385270E-07  0.120E-03    0.11      24.1  T
  44    -13.5335805 -0.970764E-08  0.765E-04    0.11      37.7  T
  45    -13.5335805 -0.574534E-08  0.413E-04    0.11      70.0  T
  46    -13.5335805 -0.169977E-08  0.279E-04    0.11     103.4  T
  47    -13.5335805 -0.115705E-08  0.111E-04    0.11     260.3  T
  48    -13.5335805 -0.181734E-09  0.414E-05    0.11     697.5  T

   *** convergence criteria satisfied after 48 iterations ***

         #    Occupation            Energy/Eh            Energy/eV
      -------------------------------------------------------------
         1        2.0000           -0.4368114             -11.8862
       ...           ...                  ...                  ...
        12        2.0000           -0.2880646              -7.8386
        13        2.0000           -0.2794122              -7.6032
        14        2.0000           -0.2703796              -7.3574
        15        2.0000           -0.2564152              -6.9774
        16        2.0000           -0.2524780              -6.8703
        17        1.9510           -0.2426978              -6.6041
        18        1.8194           -0.2413911              -6.5686 (HOMO)
        19        0.2295           -0.2372559              -6.4561 (LUMO)
        20        0.0001           -0.2293060              -6.2397
        21        0.0000           -0.2274261              -6.1886
        22        0.0000           -0.2248760              -6.1192
        23                         -0.2207418              -6.0067
       ...                                ...                  ...
        48                          1.7430661              47.4312
      -------------------------------------------------------------
                  HL-Gap            0.0041352 Eh            0.1125 eV
             Fermi-level           -0.2391968 Eh           -6.5089 eV

 SCC (total)                   0 d,  0 h,  0 min,  0.051 sec
 SCC setup                      ...        0 min,  0.000 sec (  0.315%)
 Dispersion                     ...        0 min,  0.000 sec (  0.246%)
 classical contributions        ...        0 min,  0.000 sec (  0.069%)
 integral evaluation            ...        0 min,  0.002 sec (  4.709%)
 iterations                     ...        0 min,  0.042 sec ( 81.678%)
 molecular gradient             ...        0 min,  0.006 sec ( 12.238%)
 printout                       ...        0 min,  0.000 sec (  0.698%)

         :::::::::::::::::::::::::::::::::::::::::::::::::::::
         ::                     SUMMARY                     ::
         :::::::::::::::::::::::::::::::::::::::::::::::::::::
         :: total energy             -13.366385184908 Eh    ::
         :: gradient norm              0.432036159906 Eh/a0 ::
         :: HOMO-LUMO gap              0.112523440345 eV    ::
         ::.................................................::
         :: SCC energy               -13.533580532035 Eh    ::
         :: -> isotropic ES            0.057278614578 Eh    ::
         :: -> anisotropic ES          0.000469785894 Eh    ::
         :: -> anisotropic XC         -0.029758817207 Eh    ::
         :: -> dispersion             -0.017741023468 Eh    ::
         :: repulsion energy           0.167107727707 Eh    ::
         :: add. restraining           0.000000000000 Eh    ::
         :: total charge               0.000000000000 e     ::
         :::::::::::::::::::::::::::::::::::::::::::::::::::::


Property printout bound to 'properties.out'

           -------------------------------------------------
          | TOTAL ENERGY              -13.366385184908 Eh   |
          | GRADIENT NORM               0.432036159906 Eh/α |
          | HOMO-LUMO GAP               0.112523440345 eV   |
           -------------------------------------------------

------------------------------------------------------------------------
 * finished run on 2026/04/17 at 12:14:15.046     
------------------------------------------------------------------------
 total:
 * wall-time:     0 d,  0 h,  0 min,  0.064 sec
 *  cpu-time:     0 d,  0 h,  0 min,  0.064 sec
 * ratio c/w:     0.993 speedup
 SCF:
 * wall-time:     0 d,  0 h,  0 min,  0.051 sec
 *  cpu-time:     0 d,  0 h,  0 min,  0.051 sec
 * ratio c/w:     0.999 speedup


-------------------------   --------------------
FINAL SINGLE POINT ENERGY       -13.366385184910
-------------------------   --------------------


-------------
DIPOLE MOMENT
-------------
                                X             Y             Z
Total Dipole Moment    :      1.44500       0.24100       1.75200
                        -----------------------------------------
Magnitude (a.u.)       :      2.28377
Magnitude (Debye)      :      5.80488


------------------
CARTESIAN GRADIENT
------------------

   1   B   :   -0.041739238   -0.033715768   -0.031274859
   2   B   :    0.041522697    0.170228685    0.179381883
   3   B   :    0.028950092    0.019667577    0.043013834
   4   B   :    0.084872914    0.007307457   -0.050291290
   5   B   :   -0.045391337   -0.023653776   -0.038467318
   6   B   :   -0.066499057   -0.195112467   -0.175219777
   7   B   :    0.058739277   -0.045637406   -0.060237028
   8   B   :    0.002049487    0.042530767    0.077249950
   9   B   :   -0.011971734   -0.013411451   -0.039230269
  10   B   :   -0.017189060    0.059326649   -0.007260448
  11   B   :   -0.018466936   -0.012926854    0.066687995
  12   B   :   -0.014877104    0.025396588    0.035647328

Difference to translation invariance:
           :   -0.0000000000   -0.0000000000   -0.0000000000

Difference to rotation invariance:
           :   -0.0000000154   -0.0000000096    0.0000000075

Norm of the Cartesian gradient     ...    0.4320361599
RMS gradient                       ...    0.0720060267
MAX gradient                       ...    0.1951124667
------------------------------------------------------------------------------
                         ORCA GEOMETRY RELAXATION STEP
------------------------------------------------------------------------------

Reading the OPT-File                    .... done
Getting information on internals        .... done
Copying old internal coords+grads       .... done
Making the new internal coordinates     .... (2022 redundants) done
Validating the new internal coordinates .... (2022 redundants) done
Calculating the B-matrix                .... done
Calculating the G,G- and P matrices     .... done
Transforming gradient to internals      .... done
Projecting the internal gradient        .... done
Number of atoms                         ....  12
Number of internal coordinates          .... 127
Current Energy                          ....   -13.366385185 Eh
Current gradient norm                   ....     0.432036160 Eh/bohr
Maximum allowed component of the step   ....  0.300
Current trust radius                    ....  0.300
Updating the Hessian (BFGS)             .... done
Forming the augmented Hessian           .... done
Diagonalizing the augmented Hessian     .... done
Last element of RFO vector              ....  0.734207062
Lowest eigenvalues of augmented Hessian:
 -0.199999313  0.010112275  0.011174670  0.015817146  0.019966663
Length of the computed step             ....  0.924705917
Warning: the length of the step is outside the trust region - taking restricted step instead
The input lambda is                     ....     0.008708
   iter:   5  x=   -0.000885  g=36794.672047 f(x)=   163.595698
   iter:  10  x=   -0.136460  g=   65.458307 f(x)=     3.513848
   iter:  15  x=   -0.666114  g=    0.385505 f(x)=     0.030392
   iter:  20  x=   -0.685211  g=    0.248517 f(x)=     0.000000
The output lambda is                    ....    -0.685211 (20 iterations)
The final length of the internal step   ....  0.300000000
Converting the step to Cartesian space:
 Initial RMS(Int)=    0.0266206953
Transforming coordinates:
 Iter   0:  RMS(Cart)=    0.1061206979 RMS(Int)=    0.0263899591
 Iter   5:  RMS(Cart)=    0.0000000225 RMS(Int)=    0.0000000162
done
Storing new coordinates                 .... done
The predicted energy change is          ....    -0.063789152
Previously predicted energy change      ....    -0.066694568
Actually observed energy change         ....    -0.071121142
Ratio of predicted to observed change   ....     1.066370826
New trust radius                        ....     0.450000000

                                .--------------------.
          ----------------------|Geometry convergence|-------------------------
          Item                value                   Tolerance       Converged
          ---------------------------------------------------------------------
          Energy change      -0.0711211418            0.0000010000      NO
          RMS gradient        0.0196962617            0.0000300000      NO
          MAX gradient        0.0877576069            0.0001000000      NO
          RMS step            0.0266206953            0.0006000000      NO
          MAX step            0.1286240383            0.0010000000      NO
          -------------------------------------------------------------------------
          ........................................................
          Max(Bonds)      0.0681      Max(Angles)    4.80
          Max(Dihed)        4.48      Max(Improp)    0.00
          ---------------------------------------------------------------------

The optimization has not yet converged - more geometry cycles are needed


    ---------------------------------------------------------------------------
                         Redundant Internal Coordinates
[...]
Magnitude (Debye)      :      2.37024


------------------
CARTESIAN GRADIENT
------------------

   1   B   :   -0.000808790   -0.000466869   -0.002878441
   2   B   :    0.000914202   -0.004123349   -0.008032836
   3   B   :   -0.002798646    0.004131113   -0.004448520
   4   B   :    0.004763452   -0.001701923    0.003089998
   5   B   :    0.000802985   -0.004275913    0.001551789
   6   B   :   -0.005476684    0.003344480    0.005677293
   7   B   :    0.000801107    0.002181111    0.001358032
   8   B   :    0.003821771   -0.000481084    0.000075328
   9   B   :   -0.000835066    0.000088456    0.000433621
  10   B   :   -0.007101868    0.004012955   -0.001881181
  11   B   :   -0.002387948    0.000517243    0.001468853
  12   B   :    0.008305484   -0.003226220    0.003586062

Difference to translation invariance:
           :   -0.0000000000   -0.0000000000    0.0000000000

Difference to rotation invariance:
           :   -0.0000000172   -0.0000000083   -0.0000000196

Norm of the Cartesian gradient     ...    0.0214365972
RMS gradient                       ...    0.0035727662
MAX gradient                       ...    0.0083054843
------------------------------------------------------------------------------
                         ORCA GEOMETRY RELAXATION STEP
------------------------------------------------------------------------------

Reading the OPT-File                    .... done
Getting information on internals        .... done
Copying old internal coords+grads       .... done
Making the new internal coordinates     .... (2022 redundants) done
Validating the new internal coordinates .... (2022 redundants) done
Calculating the B-matrix                .... done
Calculating the G,G- and P matrices     .... done
Transforming gradient to internals      .... done
Projecting the internal gradient        .... done
Number of atoms                         ....  12
Number of internal coordinates          .... 127
Current Energy                          ....   -14.259805960 Eh
Current gradient norm                   ....     0.021436597 Eh/bohr
Maximum allowed component of the step   ....  0.300
Current trust radius                    ....  0.700
Updating the Hessian (BFGS)             .... done
Forming the augmented Hessian           .... done
Diagonalizing the augmented Hessian     .... done
Last element of RFO vector              ....  0.977430373
Lowest eigenvalues of augmented Hessian:
 -0.000368550  0.003058120  0.008032477  0.012953967  0.017450427
Length of the computed step             ....  0.216135925
The final length of the internal step   ....  0.216135925
Converting the step to Cartesian space:
 Initial RMS(Int)=    0.0191789620
Transforming coordinates:
 Iter   0:  RMS(Cart)=    0.0193857967 RMS(Int)=    0.0191778528
done
Storing new coordinates                 .... done
The predicted energy change is          ....    -0.000192884
Previously predicted energy change      ....    -0.000219731
Actually observed energy change         ....    -0.000297132
Ratio of predicted to observed change   ....     1.352254671
New trust radius                        ....     0.700000000

                                .--------------------.
          ----------------------|Geometry convergence|-------------------------
          Item                value                   Tolerance       Converged
          ---------------------------------------------------------------------
          Energy change      -0.0002971317            0.0000010000      NO
          RMS gradient        0.0011749223            0.0000300000      NO
          MAX gradient        0.0044846262            0.0001000000      NO
          RMS step            0.0191789620            0.0006000000      NO
          MAX step            0.0619729106            0.0010000000      NO
          -------------------------------------------------------------------------
          ........................................................
          Max(Bonds)      0.0171      Max(Angles)    2.05
          Max(Dihed)        3.55      Max(Improp)    0.00
          ---------------------------------------------------------------------

The optimization has not yet converged - more geometry cycles are needed


    ---------------------------------------------------------------------------
                         Redundant Internal Coordinates
                            (Angstroem and degrees)

        Definition                    Value    dE/dq     Step     New-Value
    ----------------------------------------------------------------------------
     1. B(B   1,B   0)                4.1212  0.000207 -0.0171    4.1041   
     2. B(B   2,B   0)                2.6662 -0.001905 -0.0029    2.6633   
     3. B(B   3,B   1)                1.5290 -0.000835 -0.0006    1.5284   
     4. B(B   4,B   2)                1.5137  0.003590 -0.0024    1.5113   
     5. B(B   5,B   3)                1.8690  0.000554 -0.0073    1.8617   
     6. B(B   5,B   1)                2.2193  0.003311 -0.0160    2.2033   
     7. B(B   6,B   0)                1.5341  0.000877 -0.0007    1.5335   
     8. B(B   7,B   6)                1.6554  0.000601  0.0130    1.6684   
     9. B(B   7,B   5)                1.6258  0.000798  0.0110    1.6368   
    10. B(B   9,B   8)                2.9176  0.000373  0.0068    2.9244   
    11. B(B  10,B   1)                1.5344 -0.000091 -0.0015    1.5329   
    12. B(B  10,B   6)                1.6358 -0.001535 -0.0097    1.6261   
    13. B(B  10,B   0)                3.0327 -0.000598  0.0068    3.0395   
    14. B(B  10,B   5)                2.0291  0.002627 -0.0061    2.0230   
    15. B(B  11,B   2)                1.5628  0.001233 -0.0012    1.5616   
    16. B(B  11,B   9)                1.5493 -0.003597 -0.0019    1.5474   
    17. B(B  11,B   5)                1.7815  0.003880  0.0060    1.7875   
    18. A(B   6,B   0,B  10)           17.49 -0.000144   -0.97     16.52   
    19. A(B   1,B   0,B   2)           79.01  0.000403    0.55     79.56   
    20. A(B   1,B   0,B   6)           35.01 -0.000268   -0.46     34.55   
    21. A(B   2,B   0,B   6)           94.78 -0.000120    0.28     95.06   
    22. A(B   2,B   0,B  10)           87.81  0.000107    0.41     88.22   
    23. A(B   1,B   0,B  10)           17.60 -0.000130    0.39     17.99   
    24. A(B   0,B   1,B  10)           36.69 -0.000361    1.05     37.75   
    25. A(B   3,B   1,B  10)          118.43 -0.000504    0.55    118.98   
    26. A(B   5,B   1,B  10)           62.33  0.000068    0.20     62.53   
    27. A(B   0,B   1,B   3)          100.60  0.000356   -0.12    100.47   
    28. A(B   0,B   1,B   5)           57.70  0.000370   -0.01     57.70   
    29. A(B   3,B   1,B   5)           56.25 -0.000610    0.21     56.46   
    30. A(B   0,B   2,B  11)          109.72  0.002321   -0.45    109.27   
    31. A(B   4,B   2,B  11)          136.42 -0.000158   -0.02    136.40   
    32. A(B   0,B   2,B   4)           28.32 -0.002572    0.43     28.75   
    33. A(B   1,B   3,B   5)           80.88  0.001402   -0.46     80.42   
    34. A(B   1,B   5,B   3)           42.86 -0.000792    0.25     43.12   
    35. A(B   7,B   5,B  10)           51.68 -0.000703   -0.12     51.56   
    36. A(B   3,B   5,B  10)           84.83 -0.001384    0.61     85.44   
    37. A(B   3,B   5,B   7)          134.54 -0.002334    0.42    134.95   
    38. A(B  10,B   5,B  11)          130.75 -0.000212    0.87    131.62   
    39. A(B   1,B   5,B  10)           42.05 -0.000614    0.29     42.33   
    40. A(B   7,B   5,B  11)          120.00  0.000858   -0.37    119.63   
    41. A(B   3,B   5,B  11)           97.19  0.001186    0.03     97.22   
    42. A(B   1,B   5,B   7)           92.35 -0.001419    0.36     92.71   
    43. A(B   1,B   5,B  11)          123.83  0.000117    0.50    124.33   
    44. A(B   7,B   6,B  10)           59.52  0.000060   -0.25     59.27   
    45. A(B   0,B   6,B  10)          146.15  0.000044    1.81    147.96   
    46. A(B   0,B   6,B   7)          131.05  0.000142   -0.91    130.14   
    47. A(B   5,B   7,B   6)          103.74  0.000210   -1.36    102.38   
    48. A(B   8,B   9,B  11)           34.06 -0.004485    0.26     34.32   
    49. A(B   5,B  10,B   6)           88.87  0.000172    0.21     89.08   
    50. A(B   1,B  10,B   6)          141.91  0.000602   -2.05    139.86   
    51. A(B   1,B  10,B   5)           75.62  0.000546   -0.48     75.14   
    52. A(B   0,B  10,B   6)           16.37  0.000100   -0.84     15.52   
    53. A(B   0,B  10,B   5)           84.51  0.000276   -0.47     84.04   
    54. A(B   0,B  10,B   1)          125.71  0.000491   -1.45    124.26   
    55. A(B   2,B  11,B   5)          115.65 -0.002814   -0.40    115.25   
    56. A(B   5,B  11,B   9)           61.60  0.003285    0.07     61.67   
    57. A(B   2,B  11,B   9)          161.75 -0.000679    0.30    162.05   
    58. D(B   5,B   1,B   0,B  10)    -85.92  0.000167    0.32    -85.60   
    59. D(B   3,B   1,B   0,B   6)   -120.26  0.001038   -1.20   -121.46   
    60. D(B   3,B   1,B   0,B  10)   -124.03  0.001195    0.14   -123.88   
    61. D(B   5,B   1,B   0,B   2)     33.02 -0.000660   -0.89     32.13   
    62. D(B   5,B   1,B   0,B   6)    -82.15  0.000010   -1.03    -83.18   
    63. D(B   3,B   1,B   0,B   2)     -5.08  0.000369   -1.07     -6.15   
    64. D(B  11,B   2,B   0,B   6)     24.89  0.000908    1.25     26.15   
    65. D(B  11,B   2,B   0,B   1)     -6.51  0.000956    1.58     -4.93   
    66. D(B   4,B   2,B   0,B  10)    171.95  0.000591    2.08    174.03   
    67. D(B   4,B   2,B   0,B   1)    156.60  0.000579    1.49    158.09   
    68. D(B   4,B   2,B   0,B   6)   -172.00  0.000532    1.17   -170.83   
    69. D(B   5,B   3,B   1,B  10)      4.58 -0.000574   -0.62      3.96   
    70. D(B   5,B   3,B   1,B   0)     38.86 -0.000540    0.19     39.05   
    71. D(B   3,B   5,B   1,B   0)   -133.15 -0.001035    0.49   -132.66   
    72. D(B   3,B   5,B   1,B  10)   -175.45 -0.000551   -0.66   -176.11   
    73. D(B  10,B   5,B   3,B   1)     -3.06  0.000400    0.51     -2.55   
    74. D(B   7,B   5,B   3,B   1)     12.68  0.001000    0.35     13.03   
    75. D(B  10,B   5,B   1,B   0)     42.30 -0.000483    1.15     43.45   
    76. D(B  10,B   5,B   1,B   3)    175.45  0.000551    0.66    176.11   
    77. D(B   7,B   5,B   1,B   0)     55.86  0.000025    0.33     56.19   
    78. D(B   7,B   5,B   1,B  10)     13.56  0.000508   -0.82     12.74   
    79. D(B  11,B   5,B   3,B   1)   -133.54  0.000750   -0.45   -133.99   
    80. D(B   7,B   5,B   1,B   3)   -170.99  0.001060   -0.16   -171.15   
    81. D(B  10,B   6,B   0,B   1)     -3.79  0.000155    1.08     -2.72   
    82. D(B   7,B   6,B   0,B   2)     28.35 -0.000206    0.74     29.09   
    83. D(B   7,B   6,B   0,B   1)     91.42  0.000548    1.02     92.44   
    84. D(B  10,B   6,B   0,B   2)    -66.86 -0.000599    0.80    -66.06   
    85. D(B   7,B   6,B   0,B  10)     95.22  0.000393   -0.06     95.16   
    86. D(B   6,B   7,B   5,B  10)    -53.81  0.000359    0.07    -53.74   
    87. D(B   6,B   7,B   5,B   3)    -73.95 -0.000580    0.30    -73.65   
    88. D(B   6,B   7,B   5,B   1)    -65.36 -0.000046    0.73    -64.63   
    89. D(B   5,B   7,B   6,B   0)    -74.24  0.000612   -1.76    -76.00   
    90. D(B   5,B   7,B   6,B  10)     65.69  0.000727    0.36     66.05   
    91. D(B   6,B   7,B   5,B  11)     66.48 -0.000557    1.30     67.79   
    92. D(B   0,B  10,B   6,B   7)   -119.38 -0.000347    1.77   -117.60   
    93. D(B   5,B  10,B   6,B   0)     74.19  0.000500   -2.64     71.55   
    94. D(B   5,B  10,B   6,B   7)    -45.19  0.000153   -0.86    -46.05   
    95. D(B   1,B  10,B   6,B   7)   -109.86 -0.000664   -1.78   -111.64   
    96. D(B   6,B  10,B   5,B  11)    -46.70 -0.000400    2.40    -44.31   
    97. D(B   6,B  10,B   5,B   7)     52.52  0.000484    1.24     53.76   
    98. D(B   6,B  10,B   5,B   3)   -141.75 -0.000783    1.78   -139.97   
    99. D(B   6,B  10,B   5,B   1)   -144.86 -0.000367    2.18   -142.68   
   100. D(B   1,B  10,B   5,B  11)     98.15 -0.000033    0.22     98.37   
   101. D(B   1,B  10,B   5,B   7)   -162.63  0.000851   -0.94   -163.56   
   102. D(B   1,B  10,B   5,B   3)      3.11 -0.000416   -0.41      2.70   
   103. D(B   0,B  10,B   1,B   3)     67.88  0.001151    0.28     68.16   
   104. D(B   6,B  10,B   1,B   0)     -3.29  0.000069    1.79     -1.50   
   105. D(B   6,B  10,B   1,B   5)     68.89  0.000647    1.39     70.28   
   106. D(B   6,B  10,B   1,B   3)     64.59  0.001220    2.07     66.66   
   107. D(B   5,B  10,B   1,B   0)    -72.18 -0.000579    0.40    -71.78   
   108. D(B   5,B  10,B   1,B   3)     -4.30  0.000572    0.68     -3.62   
   109. D(B   6,B  10,B   0,B   2)    113.50 -0.000602    0.96    114.47   
   110. D(B   5,B  10,B   0,B   1)     67.89  0.000737   -0.32     67.57   
   111. D(B   1,B  10,B   6,B   0)      9.52 -0.000317   -3.55      5.97   
   112. D(B   5,B  10,B   0,B   6)   -104.89  0.000445   -2.61   -107.50   
   113. D(B   5,B  10,B   0,B   2)      8.61 -0.000157   -1.65      6.96   
   114. D(B   1,B  10,B   0,B   6)   -172.78 -0.000292   -2.29   -175.07   
   115. D(B   1,B  10,B   0,B   2)    -59.28 -0.000894   -1.32    -60.60   
   116. D(B   9,B  11,B   5,B   1)    -60.01 -0.000700    0.51    -59.50   
   117. D(B   9,B  11,B   2,B   4)     38.48  0.002461   -2.08     36.41   
   118. D(B   9,B  11,B   2,B   0)     50.02  0.001706   -2.69     47.33   
   119. D(B   5,B  11,B   2,B   4)    -38.29  0.000246   -0.98    -39.27   
   120. D(B   5,B  11,B   2,B   0)    -26.76 -0.000508   -1.59    -28.35   
   121. D(B   2,B  11,B   9,B   8)    -78.46 -0.001162    1.31    -77.15   
   122. D(B   5,B  11,B   9,B   8)      7.60  0.000224    0.02      7.62   
   123. D(B   2,B  11,B   5,B   3)    136.13 -0.001042    1.07    137.20   
   124. D(B   2,B  11,B   5,B   1)     99.72 -0.000996    0.89    100.61   
   125. D(B   9,B  11,B   5,B  10)   -112.96  0.000093   -0.30   -113.26   
   126. D(B   9,B  11,B   5,B   7)   -176.36  0.000499   -0.00   -176.36   
   127. D(B   9,B  11,B   5,B   3)    -23.60 -0.000746    0.69    -22.91   
    ----------------------------------------------------------------------------

Geometry step timings:
Preparation and reading OPT file:      0.000 s ( 0.600 %)
Internal coordinates            :      0.000 s ( 0.694 %)
B/P matrices and projection     :      0.001 s (18.199 %)
Hessian update/contruction      :      0.001 s (19.756 %)
Making the step                 :      0.002 s (34.784 %)
Converting the step to Cartesian:      0.000 s ( 2.552 %)
Storing new data                :      0.000 s ( 1.107 %)
Checking convergence            :      0.000 s ( 1.238 %)
Final printing                  :      0.001 s (21.069 %)
Total time                      :      0.005 s

Time for energy+gradient        :      0.053 s
Time for complete geometry iter :      0.060 s




    ----------------------------------------------------------------------------
                                  WARNING !!!
       The optimization did not converge but reached the maximum number of
       optimization cycles.
       Please check your results very carefully.
    ----------------------------------------------------------------------------



--------------------------------
SUGGESTED CITATIONS FOR THIS RUN
--------------------------------

Below you find a list of papers that are relevant to this ORCA run
We neither can nor want to force you to cite these papers, but we appreciate if you do
You receive ORCA, which is the product of decades of hard work by many enthusiastic individuals, for free
The only thing we kindly ask in return is that you cite our papers,
We deeply appreciate it, if you show your appreciation for ORCA by not just citing the generic ORCA reference.

Please note that relegating all ORCA citations to the supporting information does *not* help us.
SI sections are not indexed - citations you put there will not count into any citation statistics
But we need these citations in order to attract the funding resources that allow us to do what we are doing

Therefore, if you are a happy ORCA user, please consider citing a few of the papers listed below in the main body of your paper

In addition to the list printed below, the program has created the file random_d1.90_004_m1.bibtex that contains the list in bibtex format
You can import this file easily into all common literature databanks and citation aid programs

It goes without saying that in many instances, there are alternative algorithms to achieve similar
results as the ones you have gotten from ORCA. It is, of course, also the case that in some instances
ORCA just re-implements algorithms worked out by others. We are fully aware of that and we are also
fully appreciative of our colleagues work. Hence this citation list should not be read as indicating
that the listed papers, which are focused on our own work, are the only ones worth citing. It simply
meant to make it easier for users to cite ORCA specific papers. It is not a substitute for doing your
own literature research and citing the relevant literature in a scientifically appropriate manner.

List of essential papers. We consider these as the minimum necessary citations

  1. Bannwarth, C.; Ehlert, S.; Grimme, S.
     GFN2-xTB—An Accurate and Broadly Parametrized Self-Consistent Tight-Binding Quantum Chemical Method with Multipole Electrostatics and Density-Dependent Dispersion Contributions
     J. Chem. Theory Comput. 2019 15(3), 1652-1671
     doi.org/10.1021/acs.jctc.8b01176
  2. Neese, F.
     Software update: the ORCA program system, version 6.0
     WIRES Comput. Molec. Sci. 2025 15(1), e70019
     doi.org/10.1002/wcms.70019

List of papers to cite with high priority. The work reported in these papers was absolutely
necessary for this run to complete.
Our perspective: the developers of density functionals and basis sets usually get cited in chemistry papers
Good! But without the algorithms to do something with them, the functionals or basis sets would not do anything.
Hence, in our opinion, the algorithm design and method developments papers are equally worthy of getting cited

  1. Bannwarth, C.; Caldeweyher, E.; Ehlert, S.; Hansen, A.; Pracht, P.; Seibert, J.; Spicher, S.; Grimme, S.
     Extended tight-binding quantum chemistry methods
     WIRES Comput. Molec. Sci. 2020 11(2), e1493
     doi.org/10.1002/wcms.1493

List of suggested additional citations. These are papers that are important in the 'surrounding' of 
of this run, or papers that preceded the highly important papers. If you like your results we are grateful for a citation.

  1. Neese, F.
     The ORCA program system
     WIRES Comput. Molec. Sci. 2012 2(1), 73-78
     doi.org/10.1002/wcms.81
  2. Neese, F.
     Software update: the ORCA program system, version 4.0
     WIRES Comput. Molec. Sci. 2018 8(1), 1-6
     doi.org/10.1002/wcms.1327
  3. Neese, F.; Wennmohs, F.; Becker, U.; Riplinger, C.
     The ORCA quantum chemistry program package
     J. Chem. Phys. 2020 152(22), 224108
     doi.org/10.1063/5.0004608
  4. Neese, F.
     Software update: The ORCA program system—Version 5.0
     WIRES Comput. Molec. Sci. 2022 12(1), e1606
     doi.org/10.1002/wcms.1606

List of optional additional citations

  1. Neese, F.
     Approximate second-order SCF convergence for spin unrestricted wavefunctions
     Chem. Phys. Lett. 2000 325(1-3), 93-98
     doi.org/10.1016/s0009-2614(00)00662-x

Timings for individual modules:

Sum of individual times          ...        3.211 sec (=   0.054 min)
Geometry relaxation              ...        0.369 sec (=   0.006 min)  11.5 %
XTB module                       ...        2.841 sec (=   0.047 min)  88.5 %
                             ****ORCA TERMINATED NORMALLY****
TOTAL RUN TIME: 0 days 0 hours 0 minutes 3 seconds 720 msec
