
                                 *****************
                                 * O   R   C   A *
                                 *****************

                                            #,                                       
                                            ###                                      
                                            ####                                     
                                            #####                                    
                                            ######                                   
                                           ########,                                 
                                     ,,################,,,,,                         
                               ,,#################################,,                 
                          ,,##########################################,,             
                       ,#########################################, ''#####,          
                    ,#############################################,,   '####,        
                  ,##################################################,,,,####,       
                ,###########''''           ''''###############################       
              ,#####''   ,,,,##########,,,,          '''####'''          '####       
            ,##' ,,,,###########################,,,                        '##       
           ' ,,###''''                  '''############,,,                           
         ,,##''                                '''############,,,,        ,,,,,,###''
      ,#''                                            '''#######################'''  
     '                                                          ''''####''''         
             ,#######,   #######,   ,#######,      ##                                
            ,#'     '#,  ##    ##  ,#'     '#,    #''#        ,####,    ,#,          
            ##       ##  ##   ,#'  ##            #'  '#       #'       ,# #          
            ##       ##  #######   ##           ,######,      #####,      #          
            '#,     ,#'  ##    ##  '#,     ,#' ,#      #,     #,   #      #          
             '#######'   ##     ##  '#######'  #'      '#     '####' #    #          



                #########################################################
                #                        -***-                          #
                #          Department of theory and spectroscopy        #
                #                                                       #
                #                      Frank Neese                      #
                #                                                       #
                #     Directorship, Architecture, Infrastructure        #
                #                    SHARK, DRIVERS                     #
                #        Core code/Algorithms in most modules           #
                #                                                       #
                #        Max Planck Institute fuer Kohlenforschung      #
                #                Kaiser Wilhelm Platz 1                 #
                #                 D-45470 Muelheim/Ruhr                 #
                #                      Germany                          #
                #                                                       #
                #                  All rights reserved                  #
                #                        -***-                          #
                #########################################################


                         Program Version 6.1.1  -  RELEASE   -
                                (GIT: $487d211c$)
                          ($2025-11-21 10:33:24 +0100$)
                                                                         
                                  - NO-DMRG VERSION -                    
                                                                         


 With contributions from (in alphabetic order):
[Max-Planck-Institut fuer Kohlenforschung]                               
  Daniel Aravena         : Magnetic Suceptibility                        
  Michael Atanasov       : Ab Initio Ligand Field Theory (pilot matlab implementation)
  Alexander A. Auer      : GIAO ZORA, VPT2 properties, NMR spectrum      
  Ute Becker             : All parallelization in ORCA, NUMFREQ, NUMCALC 
  Giovanni Bistoni       : ED, misc. LED, open-shell LED, HFLD           
  Dmytro Bykov           : pre 5.0 version of the SCF Hessian            
  Marcos Casanova-Páez   : Triplet and SCS-CIS(D). UHF-(DLPNO)-IP/EA/STEOM-CCSD. UHF-CVS-IP/STEOM-CCSD   
  Vijay G. Chilkuri      : MRCI spin determinant printing, contributions to CSF-ICE 
  Pauline Colinet        : FMM embedding                                 
  Dipayan Datta          : RHF DLPNO-CCSD density                        
  Achintya Kumar Dutta   : EOM-CC, STEOM-CC                              
  Nicolas Foglia         : Exact transition moments, OPA infrastructure, MCD improvements    
  Dmitry Ganyushin       : Spin-Orbit,Spin-Spin,Magnetic field MRCI      
  Miquel Garcia-Rates    : C-PCM and meta-GGA Hessian, CCSD/C-PCM, Gaussian charge scheme 
  Tiago L. C. Gouveia    : GS-ROHF, GS-ROCIS                             
  Yang Guo               : DLPNO-NEVPT2, F12-NEVPT2, CIM, IAO-localization        
  Andreas Hansen         : Spin unrestricted coupled pair/coupled cluster methods 
  Ingolf Harden          : AUTO-CI MPn and infrastructure                
  Benjamin Helmich-Paris : MC-RPA, TRAH-(SCF,CASSCF), AVAS, COSX integrals, SCF dyn. polar., MC-PDFT, srDFT 
  Lee Huntington         : MR-EOM, pCC                                   
  Robert Izsak           : Overlap fitted RIJCOSX, COSX-SCS-MP3, EOM     
  Riya Kayal             : Wick's Theorem for AUTO-CI, AUTO-CI UHF-CCSDT 
  Emily Kempfer          : AUTO-CI RHF CISDT and CCSDT, approximate NEVPT4
  Christian Kollmar      : KDIIS, OOCD, Brueckner-CCSD(T), CCSD density, CASPT2, CASPT2-K, improved NEVPT2 
  Axel Koslowski         : Symmetry handling                             
  Simone Kossmann        : meta-GGA functionals, TD-DFT gradient, OOMP2, (MP2 Hessian; deprecated post 5.0) 
  Lucas Lang             : DCDCAS, Hyperfine gauge corrections, ICE-SOC+SSC
  Marvin Lechner         : AUTO-CI (C++ implementation), FIC-MRCC        
  Spencer Leger          : CASSCF response                               
  Dagmar Lenk            : GEPOL surface, SMD, ORCA-2-JSON               
  Dimitrios Liakos       : Extrapolation schemes; Compound Job, Property file
  Dimitrios Manganas     : Further ROCIS development; embedding schemes. LFT, Crystal Embedding 
  Dimitrios Pantazis     : SARC Basis sets                               
  Anastasios Papadopoulos: AUTO-CI, single reference methods and gradients 
  Taras Petrenko         : pre 6.0 DFT Hessian and TD-DFT gradient,  ECA, NRVS 
  Petra Pikulova         : Analytic Raman intensities                    
  Peter Pinski           : DLPNO-MP2, DLPNO-MP2 Gradient                 
  Shashank Vittal Rao    : ES-AILFT, MagRelax                            
  Christoph Reimann      : Effective Core Potentials                     
  Marius Retegan         : Local ZFS, SOC                                
  Christoph Riplinger    : Optimizer, TS searches, QM/MM, DLPNO-CCSD(T), (RO)-DLPNO pert. Triples 
  Michael Roemelt        : Original ROCIS implementation, recursive CI coupling coefficients
  Masaaki Saitow         : Open-shell DLPNO-CCSD energy and density      
  Barbara Sandhoefer     : DKH picture change effects                    
  Yorick L. A. Schmerwitz: GMF and freeze-and-release deltaSCF, NEB S-IDPP initial path                    
  Kantharuban Sivalingam : CASSCF convergence/infrastructure, NEVPT2, NEVPT3, NEVPT4(SD), FIC-MRCI and CEPA variants
  Bernardo de Souza      : ESD, SOC TD-DFT                               
  Georgi L. Stoychev     : AutoAux, RI-MP2 NMR, DLPNO-MP2 response, X2C  
  Van Anh Tran           : RI-MP2 g-tensors                              
  Willem Van den Heuvel  : Paramagnetic NMR                              
  Zikuan Wang            : NOTCH, Electric field optimization            
  Frank Wennmohs         : Technical directorship and infrastructure     
  Hang Xu                : AUTO-CI-Response properties                   
                                                                         
[FACCTs GmbH]                                                            
  Markus Bursch, Nicolas Foglia, Miquel Garcia-Rates, Ingolf Harden, Hagen Neugebauer, Anastasios Papadopoulos, 
  Christoph Riplinger, Bernardo de Souza, Georgi L. Stoychev                                                    
                                                                 
  APM, various basis sets, CI-OPT, improved COSX, DLPNO-Multilevel,           
  DOCKER, DRACO, updates on ESD, Fragmentator, GOAT, IRC, LR-CPCM, L-BFGS, MBIS, meta-GGA TD-DFT gradient, ML-optimized integration grids, 
  MM, NACMEs, nearIR, NEB, NEB-TS, NL-DFT gradient (VV10), 2- and 3-layer-ONIOM, interface openCOSMO-RS, QMMM,   
  Crystal-QMMM, RESP, rigid body optimization, SF, symmetry and pop. for TD-DFT, various functionals, SOLVATOR                                   
                                                                         
[Other institutions]                                                     
  V. Asgeirsson          : NEB                                           
  Christoph Bannwarth    : sTDA-DFT, sTD-DFT, PBEh-3c, B97-3c, D3        
  Giovanni Bistoni       : ETS/NOCV, ADLD/ADEX, COVALED                  
  Martin Brehm           : Molecular dynamics                            
  Ronald Cardenas        : ETS/NOCV                                      
  Martina Colucci        : COVALED                                       
  Sebastian Ehlert       : rSCAN, r2SCAN, r2SCAN-3c, D4, dhf basis sets  
  Marvin Friede          : D4 for Fr, Ra, Ac-Lr                          
  Lars Goerigk           : TD-DFT with DH, B97 family of functionals     
  Stefan Grimme          : VdW corrections, initial TS optimization, DFT functionals, gCP, sTDA/sTD-DF 
  Waldemar Hujo          : DFT-NL                                        
  H. Jonsson             : NEB                                           
  Holger Kruse           : gCP                                           
  Marcel Mueller         : wB97X-3c, vDZP basis set                      
  Hagen Neugebauer       : wr2SCAN, Native XTB                           
  Gianluca Regni         : ADLD/ADEX                                     
  Tobias Risthaus        : pre 6.0 range-separated hybrid DFT and stability analysis
  Lukas Wittmann         : regularized MP2, r2SCAN double-hybrids, wr2SCAN        
                                                                         
We gratefully acknowledge several colleagues who have allowed us to      
interface, adapt or use parts of their codes:                            
  Ed Valeev, F. Pavosevic, A. Kumar             : LibInt (2-el integral package), F12 methods 
  Garnet Chan, S. Sharma, J. Yang, R. Olivares  : DMRG                   
  Ulf Ekstrom                                   : XCFun DFT Library      
  Mihaly Kallay                                 : mrcc  (arbitrary order and MRCC methods)
  Frank Weinhold                                : gennbo (NPA and NBO analysis)           
  Simon Mueller                                 : openCOSMO-RS                            
  Christopher J. Cramer and Donald G. Truhlar   : smd solvation model                     
  S Lehtola, MJT Oliveira, MAL Marques          : LibXC Library                           
  Liviu Ungur et al                             : ANISO software                          


 Your calculation uses the libint2 library for the computation of 2-el integrals
 For citations please refer to: http://libint.valeyev.net

 Your ORCA version has been built with support for libXC version: 7.0.0
 For citations please refer to: https://libxc.gitlab.io

 This ORCA versions uses:
   CBLAS   interface :  Fast vector & matrix operations
   LAPACKE interface :  Fast linear algebra routines
   SCALAPACK package :  Parallel linear algebra routines
   Shared memory     :  Shared parallel matrices
   BLAS/LAPACK       :  OpenBLAS 0.3.29  USE64BITINT DYNAMIC_ARCH NO_AFFINITY Zen SINGLE_THREADED
        Core in use  :  Zen
   Copyright (c) 2011-2014, The OpenBLAS Project


  ***********************************
  * Starting time: Fri Apr 17 12:14:14 2026
  * Host name:     vmi3233575
  * Process ID:    333314
  * Working dir.:  /root/orca_b12_vps_pack/jobs/01_xtb/mult_1
  ***********************************

NOTE: MaxCore=500 MB was set to SCF,MP2,MDCI,CIPSI,MRCI,RASCI and CIS
      => If you want to overwrite this, your respective input block should be placed after the MaxCore statement


***************************************
The coordinates will be read from file: ../../../starts/random_d1.90_006.xyz
***************************************


Your calculation utilizes the semiempirical GFN2-xTB method
Please cite in your paper:
Bannwarth, C.; Ehlert S.; Grimme, S. J. Chem. Theory Comput. 2019, 15, 1652.
   

================================================================================

================================================================================
                                        WARNINGS
                       Please study these warnings very carefully!
================================================================================


WARNING: Geometry Optimization
  ===> : Switching off AutoStart
         For restart on a previous wavefunction, please use MOREAD

WARNING: Found dipole moment calculation with XTB calculation
  ===> : Switching off dipole moment calculation

Environment variable XTBEXE for xtb has been set!

================================================================================
                                       INPUT FILE
================================================================================
NAME = random_d1.90_006_m1.inp
|  1> ! GFN2-xTB TightSCF TightOpt
|  2> 
|  3> %pal
|  4>   nprocs 1
|  5> end
|  6> 
|  7> %maxcore 500
|  8> 
|  9> * xyzfile 0 1 ../../../starts/random_d1.90_006.xyz
| 10> 
| 11>                          ****END OF INPUT****
================================================================================

                       *****************************
                       * Geometry Optimization Run *
                       *****************************

Geometry optimization settings:
Update method            Update   .... BFGS
Choice of coordinates    CoordSys .... (2022) Redundant Internals
Initial Hessian          InHess   .... Almloef's Model
Max. no of cycles        MaxIter  .... 50

Convergence Tolerances:
Energy Change            TolE     ....  1.0000e-06 Eh
Max. Gradient            TolMAXG  ....  1.0000e-04 Eh/bohr
RMS Gradient             TolRMSG  ....  3.0000e-05 Eh/bohr
Max. Displacement        TolMAXD  ....  1.0000e-03 bohr
RMS Displacement         TolRMSD  ....  6.0000e-04 bohr
Strict Convergence                .... False

------------------------------------------------------------------------------
                        ORCA OPTIMIZATION COORDINATE SETUP
------------------------------------------------------------------------------

The optimization will be done in redundant internal coordinates (2022)
Making redundant internal coordinates   ...  (2022 redundants) done
Evaluating the initial hessian          ...  (Almloef) done
Evaluating the coordinates              ...  done
Calculating the B-matrix                .... done
Calculating the G-matrix                .... done
The number of degrees of freedom        ....  288

    -----------------------------------------------------------------
                    Redundant Internal Coordinates


    -----------------------------------------------------------------
         Definition                    Initial Value    Approx d2E/dq
    -----------------------------------------------------------------
      1. B(B   3,B   2)                  2.0951         0.062878   
      2. B(B   4,B   0)                  3.7337         0.010000   
      3. B(B   4,B   1)                  1.8591         0.149606   
      4. B(B   5,B   1)                  1.5487         0.467977   
      5. B(B   5,B   4)                  1.2700         1.302446   
      6. B(B   6,B   5)                  1.3733         0.891380   
      7. B(B   6,B   4)                  1.8561         0.151290   
      8. B(B   7,B   1)                  1.6595         0.311486   
      9. B(B   7,B   0)                  2.9594         0.010000   
     10. B(B   8,B   4)                  1.9925         0.091641   
     11. B(B   8,B   2)                  1.6142         0.367895   
     12. B(B   9,B   8)                  3.6718         0.010000   
     13. B(B   9,B   2)                  3.6804         0.010000   
     14. B(B   9,B   6)                  3.5638         0.010000   
     15. B(B   9,B   4)                  2.9853         0.010000   
     16. B(B   9,B   0)                  2.6305         0.010000   
     17. B(B  10,B   9)                  3.7924         0.010000   
     18. B(B  10,B   8)                  1.6701         0.299608   
     19. B(B  10,B   2)                  2.0014         0.088695   
     20. B(B  11,B   8)                  1.4673         0.631048   
     21. B(B  11,B   6)                  1.2356         1.478255   
     22. B(B  11,B   5)                  1.9074         0.125281   
     23. B(B  11,B   4)                  1.8082         0.180360   
     24. B(B  11,B   9)                  3.4894         0.010000   
     25. A(B   7,B   0,B   9)           94.4656         0.128903   
     26. A(B   4,B   0,B   9)           52.5371         0.109961   
     27. A(B   4,B   0,B   7)           44.8614         0.104945   
     28. A(B   4,B   1,B   5)           42.5560         0.333893   
     29. A(B   4,B   1,B   7)           97.6766         0.312338   
     30. A(B   5,B   1,B   7)          137.2086         0.378109   
     31. A(B   3,B   2,B   9)          108.3042         0.123197   
     32. A(B   8,B   2,B   9)           77.0195         0.140008   
     33. A(B   8,B   2,B  10)           53.7335         0.295032   
     34. A(B   3,B   2,B  10)          161.6239         0.227128   
     35. A(B   3,B   2,B   8)          143.9211         0.279599   
     36. A(B   9,B   2,B  10)           77.5777         0.125966   
     37. A(B   0,B   4,B   1)           89.1512         0.128807   
     38. A(B   1,B   4,B   8)          142.2451         0.258316   
     39. A(B   6,B   4,B   8)           84.2898         0.258746   
     40. A(B   1,B   4,B  11)          129.7196         0.286357   
     41. A(B   0,B   4,B   5)          134.2491         0.153963   
     42. A(B   0,B   4,B   8)          119.5320         0.124627   
     43. A(B   5,B   4,B   6)           47.7142         0.398522   
     44. A(B   5,B   4,B  11)           74.2796         0.411083   
     45. A(B   0,B   4,B   9)           44.3791         0.104605   
     46. A(B   6,B   4,B  11)           39.3849         0.286858   
     47. A(B   8,B   4,B   9)           92.8904         0.155376   
     48. A(B   5,B   4,B   9)          131.4731         0.210034   
     49. A(B   9,B   4,B  11)           89.9706         0.166369   
     50. A(B   8,B   4,B  11)           45.0948         0.265634   
     51. A(B   1,B   4,B   5)           55.5564         0.397738   
     52. A(B   0,B   4,B   6)          126.3882         0.128908   
     53. A(B   6,B   4,B   9)           91.7753         0.163352   
     54. A(B   0,B   4,B  11)          134.2043         0.130527   
     55. A(B   1,B   4,B   6)           98.3841         0.278660   
     56. A(B   1,B   4,B   9)          124.4680         0.163164   
     57. A(B   5,B   4,B   8)          105.5749         0.365321   
     58. A(B   1,B   5,B   4)           81.8875         0.488660   
     59. A(B   4,B   5,B   6)           89.1140         0.551411   
     60. A(B   4,B   5,B  11)           65.8584         0.385585   
     61. A(B   1,B   5,B  11)          147.5557         0.324252   
     62. A(B   1,B   5,B   6)          148.4104         0.455786   
     63. A(B   6,B   5,B  11)           40.2665         0.361190   
     64. A(B   5,B   6,B  11)           93.8130         0.564855   
     65. A(B   4,B   6,B  11)           68.2183         0.407521   
     66. A(B   9,B   6,B  11)           76.5337         0.165997   
     67. A(B   5,B   6,B   9)           95.6334         0.157667   
     68. A(B   4,B   6,B   9)           56.8546         0.134963   
     69. A(B   4,B   6,B   5)           43.1717         0.373063   
     70. A(B   0,B   7,B   1)          125.3240         0.178463   
     71. A(B   9,B   8,B  11)           71.2764         0.147048   
     72. A(B   4,B   8,B   9)           54.2922         0.126508   
     73. A(B   2,B   8,B   9)           77.6158         0.140374   
     74. A(B   9,B   8,B  10)           81.1387         0.138041   
     75. A(B   2,B   8,B   4)           73.7724         0.296561   
     76. A(B   4,B   8,B  10)          129.7286         0.287136   
     77. A(B   2,B   8,B  10)           75.0708         0.360386   
     78. A(B  10,B   8,B  11)          129.9813         0.395639   
     79. A(B   4,B   8,B  11)           60.7908         0.323523   
     80. A(B   2,B   8,B  11)          134.1043         0.410226   
     81. A(B   0,B   9,B   8)          104.5188         0.111067   
     82. A(B   6,B   9,B  11)           20.1424         0.100819   
     83. A(B   4,B   9,B   6)           31.3701         0.106973   
     84. A(B   0,B   9,B   6)          108.6248         0.113141   
     85. A(B   4,B   9,B  11)           31.2113         0.108119   
     86. A(B   0,B   9,B  11)          114.2110         0.114680   
     87. A(B   0,B   9,B   4)           83.0838         0.128052   
     88. A(B   2,B   9,B  10)           31.0237         0.097338   
     89. A(B   8,B   9,B  10)           25.7928         0.097398   
     90. A(B   6,B   9,B  10)           65.7390         0.098188   
     91. A(B   4,B   9,B  10)           57.1537         0.103862   
     92. A(B   0,B   9,B  10)          109.3221         0.108962   
     93. A(B  10,B   9,B  11)           45.7527         0.098773   
     94. A(B   2,B   9,B   8)           25.3647         0.098217   
     95. A(B   2,B   9,B   6)           60.6139         0.099084   
     96. A(B   2,B   9,B  11)           46.5433         0.099727   
     97. A(B   2,B   9,B   4)           36.4333         0.105312   
     98. A(B   0,B   9,B   2)           81.9568         0.110910   
     99. A(B   6,B   9,B   8)           41.8209         0.099156   
    100. A(B   8,B   9,B  11)           23.4682         0.099804   
    101. A(B   4,B   9,B   8)           32.8174         0.105429   
    102. A(B   8,B  10,B   9)           73.0685         0.133364   
    103. A(B   2,B  10,B   9)           71.3985         0.122680   
    104. A(B   2,B  10,B   8)           51.1957         0.285676   
    105. A(B   4,B  11,B   6)           72.3968         0.420447   
    106. A(B   4,B  11,B   5)           39.8621         0.278588   
    107. A(B   8,B  11,B   9)           85.2553         0.156552   
    108. A(B   6,B  11,B   9)           83.3239         0.170905   
    109. A(B   5,B  11,B   9)           88.8493         0.135850   
    110. A(B   4,B  11,B   9)           58.8182         0.139877   
    111. A(B   6,B  11,B   8)          145.8187         0.529072   
    112. A(B   5,B  11,B   8)          101.8655         0.340722   
    113. A(B   4,B  11,B   8)           74.1144         0.362363   
    114. A(B   5,B  11,B   6)           45.9204         0.394207   
    115. D(B   9,B   4,B   1,B   5)    120.2163         0.010000   
    116. D(B   6,B   4,B   0,B   7)    109.6502         0.010000   
    117. D(B   6,B   4,B   1,B   7)   -139.2343         0.010000   
    118. D(B   1,B   4,B   0,B   7)      9.8491         0.010000   
    119. D(B   5,B   4,B   0,B   9)   -109.0531         0.010000   
    120. D(B   6,B   4,B   0,B   9)    -45.7278         0.010000   
    121. D(B   1,B   4,B   0,B   9)   -145.5289         0.010000   
    122. D(B   8,B   4,B   1,B   7)    129.2724         0.010000   
    123. D(B  11,B   4,B   1,B   5)     -4.4988         0.010000   
    124. D(B   6,B   4,B   1,B   5)     22.2172         0.010000   
    125. D(B   8,B   4,B   0,B   7)   -144.3618         0.010000   
    126. D(B   5,B   4,B   0,B   7)     46.3249         0.010000   
    127. D(B  11,B   4,B   1,B   7)   -165.9504         0.010000   
    128. D(B   8,B   4,B   0,B   9)     60.2603         0.010000   
    129. D(B   8,B   4,B   1,B   5)    -69.2760         0.010000   
    130. D(B   5,B   4,B   1,B   7)   -161.4516         0.010000   
    131. D(B   6,B   5,B   4,B   1)    149.6256         0.125593   
    132. D(B   6,B   5,B   4,B   8)    -66.8513         0.125593   
    133. D(B   1,B   5,B   4,B   9)   -108.0416         0.125593   
    134. D(B  11,B   5,B   1,B   4)      6.1201         0.011174   
    135. D(B   6,B   5,B   1,B   4)    -74.8343         0.011174   
    136. D(B   6,B   5,B   1,B   7)    -47.1845         0.011174   
    137. D(B   1,B   5,B   4,B   6)   -149.6256         0.125593   
    138. D(B   4,B   5,B   1,B   7)     27.6498         0.011174   
    139. D(B  11,B   5,B   1,B   7)     33.7700         0.011174   
    140. D(B   1,B   5,B   4,B   0)    -46.1191         0.125593   
    141. D(B   1,B   5,B   4,B  11)    176.4065         0.125593   
    142. D(B   6,B   5,B   4,B  11)    -33.9680         0.125593   
    143. D(B   1,B   5,B   4,B   8)    143.5232         0.125593   
    144. D(B   6,B   5,B   4,B   9)     41.5840         0.125593   
    145. D(B  11,B   6,B   4,B   8)     -4.9385         0.010000   
    146. D(B  11,B   6,B   4,B   5)   -122.0475         0.010000   
    147. D(B   9,B   6,B   5,B   4)    -24.7466         0.044922   
    148. D(B   9,B   6,B   5,B   1)     48.1215         0.044922   
    149. D(B   5,B   6,B   4,B   9)   -150.1626         0.010000   
    150. D(B  11,B   6,B   4,B   9)     87.7899         0.010000   
    151. D(B  11,B   6,B   5,B   1)    124.9453         0.044922   
    152. D(B   4,B   6,B   5,B   1)     72.8681         0.044922   
    153. D(B  11,B   6,B   4,B   1)   -146.9772         0.010000   
    154. D(B  11,B   6,B   5,B   4)     52.0772         0.044922   
    155. D(B   5,B   6,B   4,B   0)   -120.0941         0.010000   
    156. D(B   5,B   6,B   4,B   1)    -24.9296         0.010000   
    157. D(B   5,B   6,B   4,B  11)    122.0475         0.010000   
    158. D(B   4,B   6,B   5,B  11)    -52.0772         0.044922   
    159. D(B   5,B   6,B   4,B   8)    117.1090         0.010000   
    160. D(B   0,B   7,B   1,B   5)      1.1525         0.010000   
    161. D(B   0,B   7,B   1,B   4)     19.6155         0.010000   
    162. D(B   1,B   7,B   0,B   9)      5.7898         0.010000   
    163. D(B   1,B   7,B   0,B   4)    -13.5826         0.010000   
    164. D(B   2,B   8,B   4,B  11)    173.2965         0.010000   
    165. D(B   2,B   8,B   4,B   9)     86.2226         0.010000   
    166. D(B  10,B   8,B   4,B   1)   -139.7424         0.010000   
    167. D(B   2,B   8,B   4,B   1)    -85.9530         0.010000   
    168. D(B  11,B   8,B   2,B  10)   -131.8859         0.010000   
    169. D(B   4,B   8,B   2,B   9)    -56.0518         0.010000   
    170. D(B   4,B   8,B   2,B  10)   -140.0431         0.010000   
    171. D(B   2,B   8,B   4,B   5)   -139.1525         0.010000   
    172. D(B   2,B   8,B   4,B   6)    177.7197         0.010000   
    173. D(B   4,B   8,B   2,B   3)     47.3005         0.010000   
    174. D(B   2,B   8,B   4,B   0)     48.7735         0.010000   
    175. D(B  10,B   8,B   2,B   3)   -172.6563         0.010000   
    176. D(B  10,B   8,B   2,B   9)     83.9913         0.010000   
    177. D(B  10,B   8,B   4,B  11)    119.5072         0.010000   
    178. D(B  10,B   8,B   4,B   6)    123.9304         0.010000   
    179. D(B  10,B   8,B   4,B   5)    167.0582         0.010000   
    180. D(B  11,B   8,B   2,B   3)     55.4578         0.010000   
    181. D(B  11,B   9,B   8,B  10)    137.6871         0.010000   
    182. D(B  11,B   9,B   8,B   4)    -66.9869         0.010000   
    183. D(B  11,B   9,B   8,B   2)   -145.7700         0.010000   
    184. D(B   4,B   9,B   8,B  10)   -155.3260         0.010000   
    185. D(B   4,B   9,B   8,B   2)    -78.7831         0.010000   
    186. D(B   0,B   9,B   8,B  11)    117.8563         0.010000   
    187. D(B   0,B   9,B   8,B   4)     50.8694         0.010000   
    188. D(B   0,B   9,B   8,B   2)    -27.9136         0.010000   
    189. D(B   8,B   9,B   6,B   5)     73.9870         0.010000   
    190. D(B  11,B   9,B   6,B   5)     92.5845         0.010000   
    191. D(B  11,B   9,B   6,B   4)     72.5819         0.010000   
    192. D(B   4,B   9,B   6,B  11)    -72.5819         0.010000   
    193. D(B   4,B   9,B   6,B   5)     20.0026         0.010000   
    194. D(B   0,B   9,B   6,B  11)   -109.7486         0.010000   
    195. D(B   0,B   9,B   6,B   5)    -17.1641         0.010000   
    196. D(B   0,B   9,B   6,B   4)    -37.1667         0.010000   
    197. D(B   6,B   9,B   4,B   1)   -101.4329         0.010000   
    198. D(B  11,B   9,B   4,B   0)    175.8684         0.010000   
    199. D(B  11,B   9,B   4,B   8)     45.0199         0.010000   
    200. D(B  11,B   9,B   4,B   6)    -39.3499         0.010000   
    201. D(B  11,B   9,B   4,B   5)    -68.7729         0.010000   
    202. D(B  11,B   9,B   4,B   1)   -140.7828         0.010000   
    203. D(B   0,B   9,B   4,B  11)   -175.8684         0.010000   
    204. D(B  11,B   9,B   0,B   4)     -2.3461         0.010000   
    205. D(B   0,B   9,B   4,B   1)     43.3488         0.010000   
    206. D(B  11,B   9,B   2,B   3)   -124.9024         0.010000   
    207. D(B   4,B   9,B   2,B  10)    118.7179         0.010000   
    208. D(B   6,B   9,B   4,B   5)    -29.4230         0.010000   
    209. D(B   0,B   9,B   4,B   5)    115.3587         0.010000   
    210. D(B   4,B   9,B   2,B   3)    -79.3516         0.010000   
    211. D(B   0,B   9,B   2,B   8)    152.7617         0.010000   
    212. D(B   0,B   9,B   2,B  10)   -152.0466         0.010000   
    213. D(B   0,B   9,B   2,B   3)      9.8839         0.010000   
    214. D(B   2,B   9,B   0,B   7)    -53.8847         0.010000   
    215. D(B   4,B   9,B   2,B   8)     63.5262         0.010000   
    216. D(B   8,B   9,B   6,B   4)     53.9844         0.010000   
    217. D(B   8,B   9,B   0,B   4)    -25.0550         0.010000   
    218. D(B  11,B   9,B   2,B   8)     17.9754         0.010000   
    219. D(B   8,B   9,B   0,B   7)    -42.1996         0.010000   
    220. D(B   0,B   9,B   8,B  10)   -104.4566         0.010000   
    221. D(B   6,B   9,B   0,B   4)     18.4693         0.010000   
    222. D(B   6,B   9,B   0,B   7)      1.3247         0.010000   
    223. D(B   0,B   9,B   4,B   6)    144.7817         0.010000   
    224. D(B   4,B   9,B   8,B  11)     66.9869         0.010000   
    225. D(B   0,B   9,B   4,B   8)   -130.8485         0.010000   
    226. D(B  11,B   9,B   0,B   7)    -19.4906         0.010000   
    227. D(B  11,B   9,B   2,B  10)     73.1671         0.010000   
    228. D(B   4,B   9,B   0,B   7)    -17.1446         0.010000   
    229. D(B   2,B  10,B   9,B   4)    -38.3124         0.010000   
    230. D(B   2,B  10,B   9,B   0)     29.4620         0.010000   
    231. D(B   9,B  10,B   8,B  11)     56.3088         0.010000   
    232. D(B   9,B  10,B   8,B   4)    -26.1519         0.010000   
    233. D(B   9,B  10,B   8,B   2)    -79.4513         0.010000   
    234. D(B   2,B  10,B   8,B   9)     79.4513         0.010000   
    235. D(B   2,B  10,B   8,B  11)    135.7600         0.010000   
    236. D(B   2,B  10,B   8,B   4)     53.2993         0.010000   
    237. D(B   9,B  10,B   2,B   8)     82.8966         0.010000   
    238. D(B   9,B  10,B   2,B   3)   -110.9174         0.010000   
    239. D(B   8,B  10,B   2,B   9)    -82.8966         0.010000   
    240. D(B   2,B  10,B   9,B  11)    -75.9128         0.010000   
    241. D(B   8,B  10,B   2,B   3)    166.1860         0.010000   
    242. D(B   8,B  10,B   9,B  11)    -21.9779         0.010000   
    243. D(B   8,B  10,B   9,B   4)     15.6225         0.010000   
    244. D(B   8,B  10,B   9,B   0)     83.3969         0.010000   
    245. D(B   2,B  10,B   9,B   8)    -53.9349         0.010000   
    246. D(B   2,B  10,B   9,B   6)    -72.8473         0.010000   
    247. D(B   5,B  11,B   9,B   2)     82.6190         0.010000   
    248. D(B   5,B  11,B   9,B   8)    102.0070         0.010000   
    249. D(B   5,B  11,B   9,B   6)    -45.7176         0.010000   
    250. D(B   5,B  11,B   9,B   0)     32.2173         0.010000   
    251. D(B   4,B  11,B   9,B  10)     98.4236         0.010000   
    252. D(B   4,B  11,B   9,B   2)     54.8996         0.010000   
    253. D(B   4,B  11,B   9,B   6)    -73.4370         0.010000   
    254. D(B   4,B  11,B   9,B   0)      4.4978         0.010000   
    255. D(B   6,B  11,B   8,B   2)    -20.8202         0.024303   
    256. D(B   5,B  11,B   8,B   9)    -87.8205         0.024303   
    257. D(B   5,B  11,B   8,B  10)   -148.0529         0.024303   
    258. D(B   5,B  11,B   8,B   4)    -28.9212         0.024303   
    259. D(B   5,B  11,B   8,B   2)    -37.9010         0.024303   
    260. D(B   4,B  11,B   8,B  10)   -119.1316         0.024303   
    261. D(B   4,B  11,B   8,B   2)     -8.9797         0.024303   
    262. D(B   8,B  11,B   6,B   9)     71.3014         0.150260   
    263. D(B   8,B  11,B   6,B   5)    -23.5863         0.150260   
    264. D(B   8,B  11,B   6,B   4)     11.9494         0.150260   
    265. D(B   5,B  11,B   6,B   9)     94.8877         0.150260   
    266. D(B   5,B  11,B   6,B   4)     35.5356         0.150260   
    267. D(B   4,B  11,B   6,B   9)     59.3520         0.150260   
    268. D(B   4,B  11,B   6,B   5)    -35.5356         0.150260   
    269. D(B   8,B  11,B   5,B   6)    166.7202         0.010000   
    270. D(B   8,B  11,B   5,B   4)     46.5280         0.010000   
    271. D(B   8,B  11,B   5,B   1)     39.8861         0.010000   
    272. D(B   4,B  11,B   8,B   9)    -58.8993         0.024303   
    273. D(B   6,B  11,B   5,B   4)   -120.1923         0.010000   
    274. D(B   6,B  11,B   5,B   1)   -126.8341         0.010000   
    275. D(B   4,B  11,B   5,B   6)    120.1923         0.010000   
    276. D(B   4,B  11,B   5,B   1)     -6.6419         0.010000   
    277. D(B   6,B  11,B   4,B   0)    -96.8653         0.010000   
    278. D(B   6,B  11,B   4,B   9)    -92.8344         0.010000   
    279. D(B   6,B  11,B   4,B   8)    173.0536         0.010000   
    280. D(B   4,B  11,B   9,B   8)     74.2875         0.010000   
    281. D(B   6,B  11,B   4,B   5)     40.6492         0.010000   
    282. D(B   6,B  11,B   4,B   1)     44.5024         0.010000   
    283. D(B   5,B  11,B   4,B   0)   -137.5144         0.010000   
    284. D(B   5,B  11,B   9,B   4)     27.7195         0.010000   
    285. D(B   5,B  11,B   4,B   9)   -133.4836         0.010000   
    286. D(B   5,B  11,B   4,B   8)    132.4044         0.010000   
    287. D(B   5,B  11,B   4,B   6)    -40.6492         0.010000   
    288. D(B   5,B  11,B   4,B   1)      3.8532         0.010000   
    -----------------------------------------------------------------

Number of atoms                         .... 12
Number of degrees of freedom            .... 288


         *************************************************************
         *                GEOMETRY OPTIMIZATION CYCLE   1            *
         *************************************************************
---------------------------------
CARTESIAN COORDINATES (ANGSTROEM)
---------------------------------
  B     1.847311    2.775986   -0.788185
  B    -0.130849   -0.616611   -2.117902
  B    -1.376485    0.676327    0.930621
  B    -2.057529    1.753551   -0.732215
  B     0.051964   -0.457187   -0.274689
  B     0.019432   -1.561900   -0.900434
  B     0.830902   -2.107536    0.063761
  B     0.310906    0.931825   -2.519230
  B    -0.912181   -0.783944    1.438141
  B     2.288142    0.980748    1.083246
  B    -0.979150    0.150795    2.820488
  B     0.107538   -1.742055    0.996399

----------------------------
CARTESIAN COORDINATES (A.U.)
----------------------------
  NO LB    ZA    FRAG    MASS        X           Y           Z
   0 B   5.0000    0    10.810    3.490912    5.245854   -1.489454
   1 B   5.0000    0    10.810   -0.247269   -1.165226   -4.002254
   2 B   5.0000    0    10.810   -2.601179    1.278072    1.758618
   3 B   5.0000    0    10.810   -3.888167    3.313732   -1.383686
   4 B   5.0000    0    10.810    0.098198   -0.863958   -0.519088
   5 B   5.0000    0    10.810    0.036721   -2.951562   -1.701574
   6 B   5.0000    0    10.810    1.570176   -3.982666    0.120490
   7 B   5.0000    0    10.810    0.587526    1.760895   -4.760655
   8 B   5.0000    0    10.810   -1.723773   -1.481440    2.717693
   9 B   5.0000    0    10.810    4.323961    1.853345    2.047039
  10 B   5.0000    0    10.810   -1.850325    0.284960    5.329950
  11 B   5.0000    0    10.810    0.203218   -3.292006    1.882920

      -----------------------------------------------------------      
     |                   =====================                   |     
     |                           x T B                           |     
     |                   =====================                   |     
     |                         S. Grimme                         |     
     |          Mulliken Center for Theoretical Chemistry        |     
     |                    University of Bonn                     |     
      -----------------------------------------------------------      

   * xtb version 6.6.1 (unknown) compiled by 'builduser@buildhost' on 2023-08-07

   xtb is free software: you can redistribute it and/or modify it under
   the terms of the GNU Lesser General Public License as published by
   the Free Software Foundation, either version 3 of the License, or
   (at your option) any later version.
   
   xtb is distributed in the hope that it will be useful,
   but WITHOUT ANY WARRANTY; without even the implied warranty of
   MERCHANTABILITY or FITNESS FOR A PARTICULAR PURPOSE.  See the
   GNU Lesser General Public License for more details.
   
   Cite this work as:
   * C. Bannwarth, E. Caldeweyher, S. Ehlert, A. Hansen, P. Pracht,
     J. Seibert, S. Spicher, S. Grimme, WIREs Comput. Mol. Sci., 2020, 11,
     e01493. DOI: 10.1002/wcms.1493
   
   for GFN2-xTB:
   * C. Bannwarth, S. Ehlert and S. Grimme., J. Chem. Theory Comput., 2019,
     15, 1652-1671. DOI: 10.1021/acs.jctc.8b01176
   for GFN1-xTB:
   * S. Grimme, C. Bannwarth, P. Shushkov, J. Chem. Theory Comput., 2017,
     13, 1989-2009. DOI: 10.1021/acs.jctc.7b00118
   for GFN0-xTB:
   * P. Pracht, E. Caldeweyher, S. Ehlert, S. Grimme, ChemRxiv, 2019, preprint.
     DOI: 10.26434/chemrxiv.8326202.v1
   for GFN-FF:
   * S. Spicher and S. Grimme, Angew. Chem. Int. Ed., 2020, 59, 15665-15673.
     DOI: 10.1002/anie.202004239
   
   for ALPB and GBSA implicit solvation:
   * S. Ehlert, M. Stahn, S. Spicher, S. Grimme, J. Chem. Theory Comput.,
     2021, 17, 4250-4261. DOI: 10.1021/acs.jctc.1c00471
   
   for DFT-D4:
   * E. Caldeweyher, C. Bannwarth and S. Grimme, J. Chem. Phys., 2017,
     147, 034112. DOI: 10.1063/1.4993215
   * E. Caldeweyher, S. Ehlert, A. Hansen, H. Neugebauer, S. Spicher,
     C. Bannwarth and S. Grimme, J. Chem. Phys., 2019, 150, 154122.
     DOI: 10.1063/1.5090222
   * E. Caldeweyher, J.-M. Mewes, S. Ehlert and S. Grimme, Phys. Chem. Chem. Phys.
     2020, 22, 8499-8512. DOI: 10.1039/D0CP00502A
   
   for sTDA-xTB:
   * S. Grimme and C. Bannwarth, J. Chem. Phys., 2016, 145, 054103.
     DOI: 10.1063/1.4959605
   
   in the mass-spec context:
   * V. Asgeirsson, C. Bauer and S. Grimme, Chem. Sci., 2017, 8, 4879.
     DOI: 10.1039/c7sc00601b
   * J. Koopman and S. Grimme, ACS Omega 2019, 4, 12, 15120-15133.
     DOI: 10.1021/acsomega.9b02011
   
   for metadynamics refer to:
   * S. Grimme, J. Chem. Theory Comput., 2019, 155, 2847-2862
     DOI: 10.1021/acs.jctc.9b00143
   
   for SPH calculations refer to:
   * S. Spicher and S. Grimme, J. Chem. Theory Comput., 2021, 17, 1701-1714
     DOI: 10.1021/acs.jctc.0c01306
   
   with help from (in alphabetical order)
   P. Atkinson, C. Bannwarth, F. Bohle, G. Brandenburg, E. Caldeweyher
   M. Checinski, S. Dohm, S. Ehlert, S. Ehrlich, I. Gerasimov, C. Hölzer
   A. Katbashev, J. Koopman, C. Lavigne, S. Lehtola, F. März, M. Müller,
   F. Musil, H. Neugebauer, J. Pisarek, C. Plett, P. Pracht, F. Pultar,
   J. Seibert, P. Shushkov, S. Spicher, M. Stahn, M. Steiner, T. Strunk,
   J. Stückrath, T. Rose, and J. Unsleber
   
 * started run on 2026/04/17 at 12:14:14.867     

           -------------------------------------------------
          |                Calculation Setup                |
           -------------------------------------------------

          program call               : /usr/bin/xtb random_d1.90_006_m1_XTB.xyz --grad -c 0 -u 0 -P 1 --namespace random_d1.90_006_m1 --input random_d1.90_006_m1_XTB.input.tmp --acc 0.200000
          calculation namespace      : random_d1.90_006_m1
          coordinate file            : random_d1.90_006_m1_XTB.xyz
          omp threads                :                     1

   ID    Z sym.   atoms
    1    5 B      1-12

molecular fragmentation (1/2 indicates fragments):
122222222222
# atoms in fragment 1/2:     1    11
 fragment masses (1/2) :       10.81      118.92
CMA distance (Bohr)    :   7.063
constraining FC (au)   :  0.0500

           -------------------------------------------------
          |                 G F N 2 - x T B                 |
           -------------------------------------------------

        Reference                      10.1021/acs.jctc.8b01176
      * Hamiltonian:
        H0-scaling (s, p, d)           1.850000    2.230000    2.230000
        zeta-weighting                 0.500000
      * Dispersion:
        s8                             2.700000
        a1                             0.520000
        a2                             5.000000
        s9                             5.000000
      * Repulsion:
        kExp                           1.500000    1.000000
        rExp                           1.000000
      * Coulomb:
        alpha                          2.000000
        third order                    shell-resolved
        anisotropic                    true
        a3                             3.000000
        a5                             4.000000
        cn-shift                       1.200000
        cn-exp                         4.000000
        max-rad                        5.000000


          ...................................................
          :                      SETUP                      :
          :.................................................:
          :  # basis functions                  48          :
          :  # atomic orbitals                  48          :
          :  # shells                           24          :
          :  # electrons                        36          :
          :  max. iterations                   250          :
          :  Hamiltonian                  GFN2-xTB          :
          :  restarted?                      false          :
          :  GBSA solvation                  false          :
          :  PC potential                    false          :
          :  electronic temp.          300.0000000     K    :
          :  accuracy                    0.2000000          :
          :  -> integral cutoff          0.3198970E+02      :
          :  -> integral neglect         0.2000000E-08      :
          :  -> SCF convergence          0.2000000E-06 Eh   :
          :  -> wf. convergence          0.2000000E-04 e    :
          :  Broyden damping             0.4000000          :
          ...................................................

 iter      E             dE          RMSdq      gap      omega  full diag
   1    -11.7019912 -0.117020E+02  0.205E+01    0.14       0.0  T
   2     -1.5419533  0.101600E+02  0.226E+01    0.28       1.0  T
   3      4.0201424  0.556210E+01  0.230E+01    0.22       1.0  T
   4     -0.7094337 -0.472958E+01  0.217E+01    0.09       1.0  T
   5     -3.7360862 -0.302665E+01  0.172E+01    0.31       1.0  T
   6     -9.3010630 -0.556498E+01  0.135E+01    0.12       1.0  T
   7     -8.5314797  0.769583E+00  0.130E+01    0.17       1.0  T
   8     -9.6493035 -0.111782E+01  0.124E+01    0.30       1.0  T
   9    -12.3262398 -0.267694E+01  0.975E+00    0.08       1.0  T
  10    -12.5941697 -0.267930E+00  0.986E+00    0.25       1.0  T
  11    -12.4395868  0.154583E+00  0.995E+00    0.36       1.0  T
  12    -12.3957686  0.438183E-01  0.987E+00    0.33       1.0  T
  13    -12.3869190  0.884956E-02  0.984E+00    0.31       1.0  T
  14    -12.3749317  0.119873E-01  0.977E+00    0.33       1.0  T
  15    -12.4143590 -0.394273E-01  0.730E+00    0.09       1.0  T
  16    -13.0815284 -0.667169E+00  0.662E+00    0.02       1.0  T
  17    -12.8692785  0.212250E+00  0.630E+00    0.34       1.0  T
  18    -12.7867672  0.825113E-01  0.662E+00    0.32       1.0  T
  19    -12.9170833 -0.130316E+00  0.639E+00    0.30       1.0  T
  20    -12.9380339 -0.209506E-01  0.633E+00    0.29       1.0  T
  21    -13.1176680 -0.179634E+00  0.598E+00    0.23       1.0  T
  22    -13.2960185 -0.178351E+00  0.533E+00    0.18       1.0  T
  23    -13.3492947 -0.532761E-01  0.525E+00    0.17       1.0  T
  24    -13.3851316 -0.358370E-01  0.496E+00    0.15       1.0  T
  25    -13.3625329  0.225987E-01  0.531E+00    0.15       1.0  T
  26    -13.3656388 -0.310582E-02  0.533E+00    0.15       1.0  T
  27    -13.4331462 -0.675074E-01  0.493E+00    0.12       1.0  T
  28    -13.6453870 -0.212241E+00  0.326E+00    0.11       1.0  T
  29    -13.6499537 -0.456670E-02  0.313E+00    0.10       1.0  T
  30    -13.6538368 -0.388311E-02  0.306E+00    0.11       1.0  T
  31    -13.6091558  0.446810E-01  0.382E+00    0.14       1.0  T
  32    -13.6288406 -0.196848E-01  0.354E+00    0.12       1.0  T
  33    -13.5939333  0.349073E-01  0.407E+00    0.14       1.0  T
  34    -13.3472916  0.246642E+00  0.514E+00    0.17       1.0  T
  35    -13.2216092  0.125682E+00  0.617E+00    0.19       1.0  T
  36    -13.2067223  0.148869E-01  0.627E+00    0.19       1.0  T
  37    -13.2559750 -0.492527E-01  0.610E+00    0.18       1.0  T
  38    -13.3172807 -0.613057E-01  0.568E+00    0.16       1.0  T
  39    -13.4457734 -0.128493E+00  0.495E+00    0.11       1.0  T
  40    -13.5201232 -0.743498E-01  0.466E+00    0.09       1.0  T
  41    -13.4604656  0.596576E-01  0.496E+00    0.10       1.0  T
  42    -13.5107706 -0.503050E-01  0.436E+00    0.09       1.0  T
  43    -13.5914126 -0.806420E-01  0.310E+00    0.09       1.0  T
  44    -13.4939132  0.974994E-01  0.407E+00    0.10       1.0  T
  45    -13.4870826  0.683057E-02  0.413E+00    0.10       1.0  T
  46    -13.6758704 -0.188788E+00  0.158E+00    0.11       1.0  T
  47    -13.6862886 -0.104182E-01  0.132E+00    0.10       1.0  T
  48    -13.6784926  0.779606E-02  0.151E+00    0.11       1.0  T
  49    -13.6800666 -0.157408E-02  0.108E+00    0.11       1.0  T
  50    -13.6852874 -0.522071E-02  0.825E-01    0.10       1.0  T
  51    -13.6842952  0.992199E-03  0.893E-01    0.10       1.0  T
  52    -13.6832373  0.105790E-02  0.915E-01    0.10       1.0  T
  53    -13.6925546 -0.931734E-02  0.390E-01    0.09       1.0  T
  54    -13.6930169 -0.462302E-03  0.419E-01    0.08       1.0  T
  55    -13.6937200 -0.703075E-03  0.258E-01    0.08       1.0  T
  56    -13.6932205  0.499516E-03  0.201E-01    0.09       1.0  T
  57    -13.6936747 -0.454283E-03  0.147E-01    0.08       1.0  T
  58    -13.6937075 -0.327691E-04  0.133E-01    0.08       1.0  T
  59    -13.6938765 -0.168971E-03  0.929E-02    0.08       1.0  T
  60    -13.6938979 -0.214649E-04  0.923E-02    0.08       1.0  T
  61    -13.6939297 -0.317779E-04  0.815E-02    0.08       1.0  T
  62    -13.6939387 -0.900449E-05  0.755E-02    0.08       1.0  T
  63    -13.6938956  0.431215E-04  0.930E-02    0.08       1.0  T
  64    -13.6939538 -0.581934E-04  0.475E-02    0.08       1.0  T
  65    -13.6939619 -0.813522E-05  0.337E-02    0.08       1.0  T
  66    -13.6939681 -0.617258E-05  0.190E-02    0.08       1.5  T
  67    -13.6939689 -0.757144E-06  0.138E-02    0.08       2.1  T
  68    -13.6939701 -0.119089E-05  0.854E-03    0.08       3.4  T
  69    -13.6939706 -0.514000E-06  0.474E-03    0.08       6.1  T
  70    -13.6939706 -0.655573E-07  0.174E-03    0.08      16.6  T
  71    -13.6939706  0.784499E-08  0.132E-03    0.08      21.9  T
  72    -13.6939706 -0.555610E-08  0.982E-04    0.08      29.4  T
  73    -13.6939706 -0.927415E-09  0.905E-04    0.08      31.9  T
  74    -13.6939706 -0.298276E-08  0.806E-04    0.08      35.8  T
  75    -13.6939706 -0.703339E-08  0.247E-04    0.08     116.8  T
  76    -13.6939706 -0.103757E-10  0.186E-04    0.08     155.0  T
  77    -13.6939706 -0.707612E-10  0.150E-04    0.08     193.0  T

   *** convergence criteria satisfied after 77 iterations ***

         #    Occupation            Energy/Eh            Energy/eV
      -------------------------------------------------------------
         1        2.0000           -0.4571614             -12.4400
       ...           ...                  ...                  ...
        12        2.0000           -0.2846700              -7.7463
        13        2.0000           -0.2813878              -7.6570
        14        2.0000           -0.2745110              -7.4698
        15        2.0000           -0.2633887              -7.1672
        16        2.0000           -0.2558358              -6.9616
        17        2.0000           -0.2482174              -6.7543
        18        1.6583           -0.2390624              -6.5052 (HOMO)
        19        0.3394           -0.2360532              -6.4233 (LUMO)
        20        0.0023           -0.2311429              -6.2897
        21        0.0000           -0.2234360              -6.0800
        22                         -0.2211068              -6.0166
        23                         -0.2125529              -5.7839
       ...                                ...                  ...
        48                          3.5816086              97.4605
      -------------------------------------------------------------
                  HL-Gap            0.0030092 Eh            0.0819 eV
             Fermi-level           -0.2375616 Eh           -6.4644 eV

 SCC (total)                   0 d,  0 h,  0 min,  0.103 sec
 SCC setup                      ...        0 min,  0.000 sec (  0.118%)
 Dispersion                     ...        0 min,  0.000 sec (  0.090%)
 classical contributions        ...        0 min,  0.000 sec (  0.030%)
 integral evaluation            ...        0 min,  0.003 sec (  2.884%)
 iterations                     ...        0 min,  0.093 sec ( 90.428%)
 molecular gradient             ...        0 min,  0.006 sec (  6.136%)
 printout                       ...        0 min,  0.000 sec (  0.291%)

         :::::::::::::::::::::::::::::::::::::::::::::::::::::
         ::                     SUMMARY                     ::
         :::::::::::::::::::::::::::::::::::::::::::::::::::::
         :: total energy             -13.248470738851 Eh    ::
         :: gradient norm              0.975145873814 Eh/a0 ::
         :: HOMO-LUMO gap              0.081885553883 eV    ::
         ::.................................................::
         :: SCC energy               -13.693970643589 Eh    ::
         :: -> isotropic ES            0.059442372462 Eh    ::
         :: -> anisotropic ES         -0.000523429579 Eh    ::
         :: -> anisotropic XC         -0.028890805998 Eh    ::
         :: -> dispersion             -0.016424431822 Eh    ::
         :: repulsion energy           0.445413054833 Eh    ::
         :: add. restraining           0.000000000000 Eh    ::
         :: total charge              -0.000000000000 e     ::
         :::::::::::::::::::::::::::::::::::::::::::::::::::::


Property printout bound to 'properties.out'

           -------------------------------------------------
          | TOTAL ENERGY              -13.248470738851 Eh   |
          | GRADIENT NORM               0.975145873814 Eh/α |
          | HOMO-LUMO GAP               0.081885553883 eV   |
           -------------------------------------------------

------------------------------------------------------------------------
 * finished run on 2026/04/17 at 12:14:14.982     
------------------------------------------------------------------------
 total:
 * wall-time:     0 d,  0 h,  0 min,  0.114 sec
 *  cpu-time:     0 d,  0 h,  0 min,  0.114 sec
 * ratio c/w:     0.999 speedup
 SCF:
 * wall-time:     0 d,  0 h,  0 min,  0.103 sec
 *  cpu-time:     0 d,  0 h,  0 min,  0.103 sec
 * ratio c/w:     1.000 speedup


-------------------------   --------------------
FINAL SINGLE POINT ENERGY       -13.248470738850
-------------------------   --------------------


-------------
DIPOLE MOMENT
-------------
                                X             Y             Z
Total Dipole Moment    :     -0.45300      -0.53400       0.14800
                        -----------------------------------------
Magnitude (a.u.)       :      0.71573
Magnitude (Debye)      :      1.81924


------------------
CARTESIAN GRADIENT
------------------

   1   B   :    0.010165121    0.057117103   -0.014268442
   2   B   :   -0.014125759   -0.069514195   -0.007160753
   3   B   :   -0.002746290   -0.011184763    0.026998193
   4   B   :   -0.034568313    0.038364529   -0.048169316
   5   B   :    0.018036128   -0.402122578   -0.217817709
   6   B   :    0.087302175    0.325141630    0.374992354
   7   B   :   -0.380065278    0.223293571    0.244538857
   8   B   :    0.010073232    0.035151267   -0.045122630
   9   B   :    0.046131029   -0.075012628   -0.070964272
  10   B   :    0.013442029   -0.033119443    0.038263000
  11   B   :    0.011242492    0.006211050    0.078514084
  12   B   :    0.235113434   -0.094325544   -0.359803365

Difference to translation invariance:
           :    0.0000000000   -0.0000000000    0.0000000000

Difference to rotation invariance:
           :   -0.0000000495   -0.0000001425   -0.0000000778

Norm of the Cartesian gradient     ...    0.9751458738
RMS gradient                       ...    0.1625243123
MAX gradient                       ...    0.4021225782
------------------------------------------------------------------------------
                         ORCA GEOMETRY RELAXATION STEP
------------------------------------------------------------------------------

Reading the OPT-File                    .... done
Getting information on internals        .... done
Copying old internal coords+grads       .... done
Making the new internal coordinates     .... (2022 redundants) done
Validating the new internal coordinates .... (2022 redundants) done
Calculating the B-matrix                .... done
Calculating the G,G- and P matrices     .... done
Transforming gradient to internals      .... done
Projecting the internal gradient        .... done
Number of atoms                         ....  12
Number of internal coordinates          .... 288
Current Energy                          ....   -13.248470739 Eh
Current gradient norm                   ....     0.975145874 Eh/bohr
Maximum allowed component of the step   ....  0.300
Current trust radius                    ....  0.300
Evaluating the initial hessian          ....  (Almloef) done
Projecting the Hessian                  .... done
Forming the augmented Hessian           .... done
Diagonalizing the augmented Hessian     .... done
Last element of RFO vector              ....  0.848756446
Lowest eigenvalues of augmented Hessian:
 -0.256182665  0.011056236  0.013697679  0.014076268  0.017387666
Length of the computed step             ....  0.623010264
Warning: the length of the step is outside the trust region - taking restricted step instead
The input lambda is                     ....     0.010055
   iter:   5  x=   -0.024140  g=  395.395322 f(x)=     6.296633
   iter:  10  x=   -0.654873  g=    0.622153 f(x)=     0.151956
   iter:  15  x=   -0.944592  g=    0.126868 f(x)=     0.000000
The output lambda is                    ....    -0.944592 (16 iterations)
The final length of the internal step   ....  0.300000000
Converting the step to Cartesian space:
 Initial RMS(Int)=    0.0176776695
Transforming coordinates:
 Iter   0:  RMS(Cart)=    0.0305735774 RMS(Int)=    0.0176099857
done
Storing new coordinates                 .... done

                                .--------------------.
          ----------------------|Geometry convergence|-------------------------
          Item                value                   Tolerance       Converged
          ---------------------------------------------------------------------
          RMS gradient        0.0259855332            0.0000300000      NO
          MAX gradient        0.2077752783            0.0001000000      NO
          RMS step            0.0176776695            0.0006000000      NO
          MAX step            0.1281258703            0.0010000000      NO
          -------------------------------------------------------------------------
          ........................................................
          Max(Bonds)      0.0678      Max(Angles)    2.09
          Max(Dihed)        2.03      Max(Improp)    0.00
          ---------------------------------------------------------------------

The optimization has not yet converged - more geometry cycles are needed


    ---------------------------------------------------------------------------
                         Redundant Internal Coordinates
                            (Angstroem and degrees)

        Definition                    Value    dE/dq     Step     New-Value
    ----------------------------------------------------------------------------
     1. B(B   3,B   2)                2.0951  0.069195 -0.0363    2.0587   
     2. B(B   4,B   0)                3.7337  0.048394 -0.0223    3.7113   
     3. B(B   4,B   1)                1.8591 -0.045570  0.0155    1.8746   
     4. B(B   5,B   1)                1.5487 -0.000263 -0.0006    1.5480   
     5. B(B   5,B   4)                1.2700 -0.136232  0.0491    1.3191   
     6. B(B   6,B   5)                1.3733 -0.066652  0.0255    1.3988   
     7. B(B   6,B   4)                1.8561 -0.126095  0.0457    1.9017   
     8. B(B   7,B   1)                1.6595  0.045443 -0.0205    1.6390   
     9. B(B   7,B   0)                2.9594  0.012166 -0.0079    2.9514   
    10. B(B   8,B   4)                1.9925 -0.033953  0.0107    2.0032   
    11. B(B   8,B   2)                1.6142  0.016796 -0.0078    1.6064   
    12. B(B   9,B   8)                3.6718 -0.004980  0.0023    3.6741   
    13. B(B   9,B   2)                3.6804  0.015996 -0.0086    3.6718   
    14. B(B   9,B   6)                3.5638 -0.055931  0.0204    3.5841   
    15. B(B   9,B   4)                2.9853  0.017995 -0.0074    2.9780   
    16. B(B   9,B   0)                2.6305  0.030565 -0.0175    2.6130   
    17. B(B  10,B   9)                3.7924  0.002881 -0.0013    3.7910   
    18. B(B  10,B   8)                1.6701  0.044078 -0.0190    1.6511   
    19. B(B  10,B   2)                2.0014  0.029933 -0.0143    1.9871   
    20. B(B  11,B   8)                1.4673 -0.022593  0.0117    1.4790   
    21. B(B  11,B   6)                1.2356 -0.207775  0.0678    1.3034   
    22. B(B  11,B   5)                1.9074 -0.145763  0.0504    1.9578   
    23. B(B  11,B   4)                1.8082 -0.059677  0.0215    1.8297   
    24. B(B  11,B   9)                3.4894 -0.010583  0.0049    3.4944   
    25. A(B   7,B   0,B   9)           94.47  0.003149   -0.10     94.37   
    26. A(B   4,B   0,B   9)           52.54 -0.004108    0.24     52.77   
    27. A(B   4,B   0,B   7)           44.86  0.006751   -0.32     44.54   
    28. A(B   4,B   1,B   5)           42.56 -0.038112    1.51     44.07   
    29. A(B   4,B   1,B   7)           97.68  0.032978   -1.41     96.26   
    30. A(B   5,B   1,B   7)          137.21 -0.003147    0.02    137.23   
    31. A(B   3,B   2,B   9)          108.30  0.009608   -0.53    107.78   
    32. A(B   8,B   2,B   9)           77.02 -0.007732    0.42     77.44   
    33. A(B   8,B   2,B  10)           53.73  0.007123   -0.30     53.44   
    34. A(B   3,B   2,B  10)          161.62 -0.007143    0.39    162.01   
    35. A(B   3,B   2,B   8)          143.92 -0.000399   -0.07    143.85   
    36. A(B   9,B   2,B  10)           77.58 -0.005684    0.32     77.90   
    37. A(B   0,B   4,B   1)           89.15 -0.007620    0.32     89.47   
    38. A(B   1,B   4,B   8)          142.25  0.001630   -0.12    142.12   
    39. A(B   6,B   4,B   8)           84.29 -0.040448    1.48     85.77   
    40. A(B   1,B   4,B  11)          129.72  0.002445   -0.20    129.52   
    41. A(B   0,B   4,B   5)          134.25  0.012670   -0.50    133.75   
    42. A(B   0,B   4,B   8)          119.53  0.004405   -0.15    119.38   
    43. A(B   5,B   4,B   6)           47.71  0.011425   -0.39     47.33   
    44. A(B   5,B   4,B  11)           74.28 -0.020199    0.69     74.96   
    45. A(B   0,B   4,B   9)           44.38 -0.000185   -0.06     44.32   
    46. A(B   6,B   4,B  11)           39.38 -0.043886    1.47     40.86   
    47. A(B   8,B   4,B   9)           92.89 -0.000094    0.08     92.97   
    48. A(B   5,B   4,B   9)          131.47  0.003441   -0.12    131.35   
    49. A(B   9,B   4,B  11)           89.97  0.001685    0.00     89.97   
    50. A(B   8,B   4,B  11)           45.09  0.003137    0.02     45.11   
    51. A(B   1,B   4,B   5)           55.56  0.022108   -0.86     54.69   
    52. A(B   0,B   4,B   6)          126.39  0.015717   -0.58    125.81   
    53. A(B   6,B   4,B   9)           91.78 -0.000801    0.06     91.84   
    54. A(B   0,B   4,B  11)          134.20  0.002255   -0.08    134.13   
    55. A(B   1,B   4,B   6)           98.38  0.039327   -1.43     96.95   
    56. A(B   1,B   4,B   9)          124.47 -0.002473    0.07    124.54   
    57. A(B   5,B   4,B   8)          105.57 -0.018190    0.70    106.27   
    58. A(B   1,B   5,B   4)           81.89  0.016004   -0.65     81.24   
    59. A(B   4,B   5,B   6)           89.11  0.007984   -0.36     88.75   
    60. A(B   4,B   5,B  11)           65.86  0.038576   -1.43     64.43   
    61. A(B   1,B   5,B  11)          147.56  0.055139   -2.09    145.46   
    62. A(B   1,B   5,B   6)          148.41  0.032585   -1.14    147.27   
    63. A(B   6,B   5,B  11)           40.27 -0.042793    1.44     41.71   
    64. A(B   5,B   6,B  11)           93.81  0.029592   -1.05     92.77   
    65. A(B   4,B   6,B  11)           68.22  0.045210   -1.67     66.55   
    66. A(B   9,B   6,B  11)           76.53  0.028496   -1.03     75.50   
    67. A(B   5,B   6,B   9)           95.63 -0.003620    0.07     95.70   
    68. A(B   4,B   6,B   9)           56.85  0.017641   -0.72     56.13   
    69. A(B   4,B   6,B   5)           43.17 -0.019408    0.75     43.92   
    70. A(B   0,B   7,B   1)          125.32 -0.026893    1.20    126.52   
    71. A(B   9,B   8,B  11)           71.28 -0.001500    0.07     71.35   
    72. A(B   4,B   8,B   9)           54.29  0.005443   -0.25     54.04   
    73. A(B   2,B   8,B   9)           77.62  0.005626   -0.32     77.29   
    74. A(B   9,B   8,B  10)           81.14 -0.001813    0.08     81.22   
    75. A(B   2,B   8,B   4)           73.77  0.012311   -0.60     73.17   
    76. A(B   4,B   8,B  10)          129.73  0.006197   -0.30    129.42   
    77. A(B   2,B   8,B  10)           75.07 -0.003100    0.10     75.17   
    78. A(B  10,B   8,B  11)          129.98  0.002871   -0.03    129.95   
    79. A(B   4,B   8,B  11)           60.79 -0.011071    0.44     61.23   
    80. A(B   2,B   8,B  11)          134.10  0.001238   -0.16    133.94   
    81. A(B   0,B   9,B   8)          104.52  0.003678   -0.18    104.34   
    82. A(B   6,B   9,B  11)           20.14 -0.029548    1.03     21.18   
    83. A(B   4,B   9,B   6)           31.37 -0.016840    0.66     32.03   
    84. A(B   0,B   9,B   6)          108.62  0.001040   -0.01    108.61   
    85. A(B   4,B   9,B  11)           31.21 -0.009609    0.36     31.57   
    86. A(B   0,B   9,B  11)          114.21 -0.004850    0.17    114.38   
    87. A(B   0,B   9,B   4)           83.08  0.004294   -0.18     82.91   
    88. A(B   2,B   9,B  10)           31.02  0.003765   -0.19     30.83   
    89. A(B   8,B   9,B  10)           25.79  0.006419   -0.30     25.49   
    90. A(B   6,B   9,B  10)           65.74 -0.025033    0.87     66.61   
    91. A(B   4,B   9,B  10)           57.15  0.001828   -0.16     56.99   
    92. A(B   0,B   9,B  10)          109.32  0.009910   -0.46    108.86   
    93. A(B  10,B   9,B  11)           45.75  0.004074   -0.14     45.61   
    94. A(B   2,B   9,B   8)           25.36  0.002106   -0.10     25.26   
    95. A(B   2,B   9,B   6)           60.61 -0.022938    0.82     61.44   
    96. A(B   2,B   9,B  11)           46.54 -0.001171    0.07     46.61   
    97. A(B   2,B   9,B   4)           36.43  0.001328   -0.11     36.32   
    98. A(B   0,B   9,B   2)           81.96  0.005075   -0.23     81.73   
    99. A(B   6,B   9,B   8)           41.82 -0.030346    1.12     42.94   
   100. A(B   8,B   9,B  11)           23.47 -0.003062    0.17     23.64   
   101. A(B   4,B   9,B   8)           32.82 -0.005349    0.17     32.99   
   102. A(B   8,B  10,B   9)           73.07 -0.004606    0.22     73.29   
   103. A(B   2,B  10,B   9)           71.40  0.001919   -0.13     71.27   
   104. A(B   2,B  10,B   8)           51.20 -0.004023    0.20     51.39   
   105. A(B   4,B  11,B   6)           72.40 -0.001324    0.20     72.59   
   106. A(B   4,B  11,B   5)           39.86 -0.018377    0.74     40.61   
   107. A(B   8,B  11,B   9)           85.26  0.004562   -0.25     85.01   
   108. A(B   6,B  11,B   9)           83.32  0.001052   -0.00     83.32   
   109. A(B   5,B  11,B   9)           88.85 -0.004031    0.13     88.98   
   110. A(B   4,B  11,B   9)           58.82  0.007924   -0.37     58.45   
   111. A(B   6,B  11,B   8)          145.82  0.007000   -0.28    145.54   
   112. A(B   5,B  11,B   8)          101.87 -0.008677    0.21    102.08   
   113. A(B   4,B  11,B   8)           74.11  0.007933   -0.46     73.66   
   114. A(B   5,B  11,B   6)           45.92  0.013201   -0.39     45.53   
   115. D(B   9,B   4,B   1,B   5)    120.22  0.014094   -0.52    119.69   
   116. D(B   6,B   4,B   0,B   7)    109.65  0.039104   -1.37    108.28   
   117. D(B   6,B   4,B   1,B   7)   -139.23 -0.010257    0.34   -138.90   
   118. D(B   1,B   4,B   0,B   7)      9.85 -0.006033    0.25     10.10   
   119. D(B   5,B   4,B   0,B   9)   -109.05  0.004117   -0.14   -109.19   
   120. D(B   6,B   4,B   0,B   9)    -45.73  0.036084   -1.28    -47.01   
   121. D(B   1,B   4,B   0,B   9)   -145.53 -0.009053    0.34   -145.19   
   122. D(B   8,B   4,B   1,B   7)    129.27  0.004962   -0.22    129.05   
   123. D(B  11,B   4,B   1,B   5)     -4.50  0.011088   -0.36     -4.86   
   124. D(B   6,B   4,B   1,B   5)     22.22 -0.012385    0.40     22.62   
   125. D(B   8,B   4,B   0,B   7)   -144.36 -0.003996    0.22   -144.15   
   126. D(B   5,B   4,B   0,B   7)     46.32  0.007137   -0.23     46.09   
   127. D(B  11,B   4,B   1,B   7)   -165.95  0.013217   -0.43   -166.38   
   128. D(B   8,B   4,B   0,B   9)     60.26 -0.007016    0.31     60.57   
   129. D(B   8,B   4,B   1,B   5)    -69.28  0.002834   -0.16    -69.43   
   130. D(B   5,B   4,B   1,B   7)   -161.45  0.002128   -0.07   -161.52   
   131. D(B   6,B   5,B   4,B   1)    149.63  0.027259   -0.91    148.72   
   132. D(B   6,B   5,B   4,B   8)    -66.85  0.033357   -1.21    -68.06   
   133. D(B   1,B   5,B   4,B   9)   -108.04 -0.010652    0.45   -107.59   
   134. D(B  11,B   5,B   1,B   4)      6.12 -0.003565    0.07      6.19   
   135. D(B   6,B   5,B   1,B   4)    -74.83 -0.024355    1.17    -73.67   
   136. D(B   6,B   5,B   1,B   7)    -47.18 -0.025142    1.17    -46.01   
   137. D(B   1,B   5,B   4,B   6)   -149.63 -0.027259    0.91   -148.72   
   138. D(B   4,B   5,B   1,B   7)     27.65 -0.000787    0.01     27.66   
   139. D(B  11,B   5,B   1,B   7)     33.77 -0.004352    0.08     33.85   
   140. D(B   1,B   5,B   4,B   0)    -46.12 -0.002640    0.05    -46.07   
   141. D(B   1,B   5,B   4,B  11)    176.41  0.008621   -0.29    176.12   
   142. D(B   6,B   5,B   4,B  11)    -33.97  0.035880   -1.20    -35.16   
   143. D(B   1,B   5,B   4,B   8)    143.52  0.006098   -0.30    143.22   
   144. D(B   6,B   5,B   4,B   9)     41.58  0.016607   -0.45     41.13   
   145. D(B  11,B   6,B   4,B   8)     -4.94  0.001289   -0.07     -5.01   
   146. D(B  11,B   6,B   4,B   5)   -122.05 -0.008765    0.28   -121.77   
   147. D(B   9,B   6,B   5,B   4)    -24.75 -0.012359    0.40    -24.35   
   148. D(B   9,B   6,B   5,B   1)     48.12  0.016058   -0.91     47.22   
   149. D(B   5,B   6,B   4,B   9)   -150.16  0.008976   -0.23   -150.39   
   150. D(B  11,B   6,B   4,B   9)     87.79  0.000211    0.04     87.83   
   151. D(B  11,B   6,B   5,B   1)    124.95  0.047093   -2.03    122.92   
   152. D(B   4,B   6,B   5,B   1)     72.87  0.028416   -1.31     71.56   
   153. D(B  11,B   6,B   4,B   1)   -146.98  0.003111   -0.07   -147.05   
   154. D(B  11,B   6,B   5,B   4)     52.08  0.018676   -0.72     51.35   
   155. D(B   5,B   6,B   4,B   0)   -120.09 -0.011515    0.46   -119.64   
   156. D(B   5,B   6,B   4,B   1)    -24.93  0.011876   -0.35    -25.28   
   157. D(B   5,B   6,B   4,B  11)    122.05  0.008765   -0.28    121.77   
   158. D(B   4,B   6,B   5,B  11)    -52.08 -0.018676    0.72    -51.35   
   159. D(B   5,B   6,B   4,B   8)    117.11  0.010054   -0.34    116.77   
   160. D(B   0,B   7,B   1,B   5)      1.15 -0.005059    0.27      1.42   
   161. D(B   0,B   7,B   1,B   4)     19.62 -0.017936    0.76     20.38   
   162. D(B   1,B   7,B   0,B   9)      5.79  0.016326   -0.71      5.08   
   163. D(B   1,B   7,B   0,B   4)    -13.58  0.019663   -0.84    -14.42   
   164. D(B   2,B   8,B   4,B  11)    173.30 -0.000100    0.00    173.30   
   165. D(B   2,B   8,B   4,B   9)     86.22 -0.002897    0.08     86.30   
   166. D(B  10,B   8,B   4,B   1)   -139.74  0.002320    0.05   -139.69   
   167. D(B   2,B   8,B   4,B   1)    -85.95  0.006589   -0.23    -86.19   
   168. D(B  11,B   8,B   2,B  10)   -131.89 -0.001596    0.02   -131.87   
   169. D(B   4,B   8,B   2,B   9)    -56.05 -0.003692    0.15    -55.90   
   170. D(B   4,B   8,B   2,B  10)   -140.04 -0.001003    0.01   -140.03   
   171. D(B   2,B   8,B   4,B   5)   -139.15 -0.005468    0.22   -138.93   
   172. D(B   2,B   8,B   4,B   6)    177.72 -0.005631    0.20    177.92   
   173. D(B   4,B   8,B   2,B   3)     47.30  0.002127   -0.17     47.13   
   174. D(B   2,B   8,B   4,B   0)     48.77  0.000322   -0.02     48.76   
   175. D(B  10,B   8,B   2,B   3)   -172.66  0.003130   -0.18   -172.84   
   176. D(B  10,B   8,B   2,B   9)     83.99 -0.002689    0.14     84.13   
   177. D(B  10,B   8,B   4,B  11)    119.51 -0.004370    0.29    119.80   
   178. D(B  10,B   8,B   4,B   6)    123.93 -0.009900    0.49    124.42   
   179. D(B  10,B   8,B   4,B   5)    167.06 -0.009738    0.51    167.57   
   180. D(B  11,B   8,B   2,B   3)     55.46  0.001534   -0.16     55.29   
   181. D(B  11,B   9,B   8,B  10)    137.69  0.005621   -0.13    137.55   
   182. D(B  11,B   9,B   8,B   4)    -66.99  0.013039   -0.51    -67.49   
   183. D(B  11,B   9,B   8,B   2)   -145.77  0.002165   -0.01   -145.78   
   184. D(B   4,B   9,B   8,B  10)   -155.33 -0.007417    0.37   -154.95   
   185. D(B   4,B   9,B   8,B   2)    -78.78 -0.010874    0.50    -78.29   
   186. D(B   0,B   9,B   8,B  11)    117.86 -0.019228    0.75    118.61   
   187. D(B   0,B   9,B   8,B   4)     50.87 -0.006189    0.24     51.11   
   188. D(B   0,B   9,B   8,B   2)    -27.91 -0.017063    0.74    -27.17   
   189. D(B   8,B   9,B   6,B   5)     73.99  0.027779   -1.01     72.98   
   190. D(B  11,B   9,B   6,B   5)     92.58  0.033897   -1.19     91.40   
   191. D(B  11,B   9,B   6,B   4)     72.58  0.035861   -1.33     71.25   
   192. D(B   4,B   9,B   6,B  11)    -72.58 -0.035861    1.33    -71.25   
   193. D(B   4,B   9,B   6,B   5)     20.00 -0.001964    0.15     20.15   
   194. D(B   0,B   9,B   6,B  11)   -109.75 -0.001052    0.08   -109.66   
   195. D(B   0,B   9,B   6,B   5)    -17.16  0.032845   -1.10    -18.27   
   196. D(B   0,B   9,B   6,B   4)    -37.17  0.034810   -1.25    -38.42   
   197. D(B   6,B   9,B   4,B   1)   -101.43 -0.047183    1.70    -99.73   
   198. D(B  11,B   9,B   4,B   0)    175.87  0.010799   -0.29    175.58   
   199. D(B  11,B   9,B   4,B   8)     45.02  0.003271    0.02     45.04   
   200. D(B  11,B   9,B   4,B   6)    -39.35  0.043825   -1.47    -40.82   
   201. D(B  11,B   9,B   4,B   5)    -68.77  0.027424   -0.99    -69.76   
   202. D(B  11,B   9,B   4,B   1)   -140.78 -0.003358    0.22   -140.56   
   203. D(B   0,B   9,B   4,B  11)   -175.87 -0.010799    0.29   -175.58   
   204. D(B  11,B   9,B   0,B   4)     -2.35  0.006864   -0.19     -2.54   
   205. D(B   0,B   9,B   4,B   1)     43.35 -0.014156    0.52     43.86   
   206. D(B  11,B   9,B   2,B   3)   -124.90  0.000879    0.10   -124.80   
   207. D(B   4,B   9,B   2,B  10)    118.72 -0.007028    0.26    118.97   
   208. D(B   6,B   9,B   4,B   5)    -29.42 -0.016402    0.49    -28.94   
   209. D(B   0,B   9,B   4,B   5)    115.36  0.016625   -0.70    114.66   
   210. D(B   4,B   9,B   2,B   3)    -79.35 -0.014165    0.65    -78.71   
   211. D(B   0,B   9,B   2,B   8)    152.76 -0.015720    0.68    153.44   
   212. D(B   0,B   9,B   2,B  10)   -152.05 -0.006810    0.29   -151.76   
   213. D(B   0,B   9,B   2,B   3)      9.88 -0.013946    0.67     10.56   
   214. D(B   2,B   9,B   0,B   7)    -53.88 -0.001093    0.14    -53.75   
   215. D(B   4,B   9,B   2,B   8)     63.53 -0.015939    0.65     64.17   
   216. D(B   8,B   9,B   6,B   4)     53.98  0.029743   -1.16     52.83   
   217. D(B   8,B   9,B   0,B   4)    -25.06  0.006475   -0.23    -25.28   
   218. D(B  11,B   9,B   2,B   8)     17.98 -0.000896    0.10     18.08   
   219. D(B   8,B   9,B   0,B   7)    -42.20  0.006339   -0.19    -42.39   
   220. D(B   0,B   9,B   8,B  10)   -104.46 -0.013606    0.62   -103.84   
   221. D(B   6,B   9,B   0,B   4)     18.47 -0.024735    0.92     19.39   
   222. D(B   6,B   9,B   0,B   7)      1.32 -0.024871    0.96      2.28   
   223. D(B   0,B   9,B   4,B   6)    144.78  0.033027   -1.18    143.60   
   224. D(B   4,B   9,B   8,B  11)     66.99 -0.013039    0.51     67.49   
   225. D(B   0,B   9,B   4,B   8)   -130.85 -0.007527    0.31   -130.54   
   226. D(B  11,B   9,B   0,B   7)    -19.49  0.006728   -0.15    -19.64   
   227. D(B  11,B   9,B   2,B  10)     73.17  0.008015   -0.29     72.88   
   228. D(B   4,B   9,B   0,B   7)    -17.14 -0.000136    0.04    -17.10   
   229. D(B   2,B  10,B   9,B   4)    -38.31 -0.003532    0.15    -38.16   
   230. D(B   2,B  10,B   9,B   0)     29.46 -0.004881    0.19     29.66   
   231. D(B   9,B  10,B   8,B  11)     56.31 -0.006414    0.22     56.53   
   232. D(B   9,B  10,B   8,B   4)    -26.15  0.003478   -0.19    -26.34   
   233. D(B   9,B  10,B   8,B   2)    -79.45 -0.006632    0.37    -79.09   
   234. D(B   2,B  10,B   8,B   9)     79.45  0.006632   -0.37     79.09   
   235. D(B   2,B  10,B   8,B  11)    135.76  0.000218   -0.15    135.61   
   236. D(B   2,B  10,B   8,B   4)     53.30  0.010110   -0.55     52.75   
   237. D(B   9,B  10,B   2,B   8)     82.90 -0.006526    0.34     83.24   
   238. D(B   9,B  10,B   2,B   3)   -110.92 -0.007345    0.38   -110.54   
   239. D(B   8,B  10,B   2,B   9)    -82.90  0.006526   -0.34    -83.24   
   240. D(B   2,B  10,B   9,B  11)    -75.91  0.010572   -0.46    -76.37   
   241. D(B   8,B  10,B   2,B   3)    166.19 -0.000819    0.04    166.23   
   242. D(B   8,B  10,B   9,B  11)    -21.98  0.006939   -0.28    -22.25   
   243. D(B   8,B  10,B   9,B   4)     15.62 -0.007164    0.33     15.95   
   244. D(B   8,B  10,B   9,B   0)     83.40 -0.008514    0.38     83.77   
   245. D(B   2,B  10,B   9,B   8)    -53.93  0.003633   -0.18    -54.12   
   246. D(B   2,B  10,B   9,B   6)    -72.85  0.004283   -0.19    -73.04   
   247. D(B   5,B  11,B   9,B   2)     82.62 -0.011601    0.31     82.93   
   248. D(B   5,B  11,B   9,B   8)    102.01 -0.008528    0.21    102.22   
   249. D(B   5,B  11,B   9,B   6)    -45.72 -0.014010    0.42    -45.30   
   250. D(B   5,B  11,B   9,B   0)     32.22 -0.027620    0.95     33.16   
   251. D(B   4,B  11,B   9,B  10)     98.42  0.008608   -0.57     97.86   
   252. D(B   4,B  11,B   9,B   2)     54.90  0.004128   -0.31     54.59   
   253. D(B   4,B  11,B   9,B   6)    -73.44  0.001719   -0.21    -73.65   
   254. D(B   4,B  11,B   9,B   0)      4.50 -0.011890    0.32      4.82   
   255. D(B   6,B  11,B   8,B   2)    -20.82  0.001666   -0.06    -20.88   
   256. D(B   5,B  11,B   8,B   9)    -87.82  0.002372   -0.07    -87.89   
   257. D(B   5,B  11,B   8,B  10)   -148.05  0.009453   -0.30   -148.35   
   258. D(B   5,B  11,B   8,B   4)    -28.92  0.009937   -0.41    -29.33   
   259. D(B   5,B  11,B   8,B   2)    -37.90  0.009047   -0.35    -38.26   
   260. D(B   4,B  11,B   8,B  10)   -119.13 -0.000484    0.11   -119.02   
   261. D(B   4,B  11,B   8,B   2)     -8.98 -0.000891    0.06     -8.92   
   262. D(B   8,B  11,B   6,B   9)     71.30  0.005925   -0.30     71.00   
   263. D(B   8,B  11,B   6,B   5)    -23.59  0.015272   -0.57    -24.15   
   264. D(B   8,B  11,B   6,B   4)     11.95 -0.002014    0.08     12.03   
   265. D(B   5,B  11,B   6,B   9)     94.89 -0.009347    0.27     95.16   
   266. D(B   5,B  11,B   6,B   4)     35.54 -0.017287    0.64     36.18   
   267. D(B   4,B  11,B   6,B   9)     59.35  0.007940   -0.37     58.98   
   268. D(B   4,B  11,B   6,B   5)    -35.54  0.017287   -0.64    -36.18   
   269. D(B   8,B  11,B   5,B   6)    166.72  0.011119   -0.41    166.31   
   270. D(B   8,B  11,B   5,B   4)     46.53  0.006625   -0.29     46.24   
   271. D(B   8,B  11,B   5,B   1)     39.89  0.012244   -0.43     39.46   
   272. D(B   4,B  11,B   8,B   9)    -58.90 -0.007565    0.35    -58.55   
   273. D(B   6,B  11,B   5,B   4)   -120.19 -0.004494    0.12   -120.07   
   274. D(B   6,B  11,B   5,B   1)   -126.83  0.001125   -0.02   -126.85   
   275. D(B   4,B  11,B   5,B   6)    120.19  0.004494   -0.12    120.07   
   276. D(B   4,B  11,B   5,B   1)     -6.64  0.005619   -0.14     -6.78   
   277. D(B   6,B  11,B   4,B   0)    -96.87  0.011041   -0.28    -97.14   
   278. D(B   6,B  11,B   4,B   9)    -92.83  0.000648   -0.00    -92.84   
[...]
         :::::::::::::::::::::::::::::::::::::::::::::::::::::


Property printout bound to 'properties.out'

           -------------------------------------------------
          | TOTAL ENERGY              -14.276561091782 Eh   |
          | GRADIENT NORM               0.022024207590 Eh/α |
          | HOMO-LUMO GAP               0.997827905668 eV   |
           -------------------------------------------------

------------------------------------------------------------------------
 * finished run on 2026/04/17 at 12:14:19.053     
------------------------------------------------------------------------
 total:
 * wall-time:     0 d,  0 h,  0 min,  0.031 sec
 *  cpu-time:     0 d,  0 h,  0 min,  0.031 sec
 * ratio c/w:     0.998 speedup
 SCF:
 * wall-time:     0 d,  0 h,  0 min,  0.020 sec
 *  cpu-time:     0 d,  0 h,  0 min,  0.020 sec
 * ratio c/w:     1.000 speedup


-------------------------   --------------------
FINAL SINGLE POINT ENERGY       -14.276561091780
-------------------------   --------------------


-------------
DIPOLE MOMENT
-------------
                                X             Y             Z
Total Dipole Moment    :      0.31500       0.78200      -0.27900
                        -----------------------------------------
Magnitude (a.u.)       :      0.88803
Magnitude (Debye)      :      2.25718


------------------
CARTESIAN GRADIENT
------------------

   1   B   :   -0.000510336   -0.003272799   -0.000791345
   2   B   :    0.001529588   -0.003470686    0.002972493
   3   B   :   -0.000745517    0.001136505    0.000709872
   4   B   :   -0.001068757    0.000115184    0.001190279
   5   B   :   -0.005441372    0.002024366    0.005393113
   6   B   :   -0.002041152    0.008020960    0.002627583
   7   B   :   -0.002818678   -0.006236223    0.003698531
   8   B   :    0.003326857   -0.000049329   -0.002041637
   9   B   :   -0.001986997    0.003690375   -0.002515701
  10   B   :    0.000063068   -0.000268500   -0.000725546
  11   B   :    0.000018546   -0.000794144    0.000057598
  12   B   :    0.009674750   -0.000895709   -0.010575241

Difference to translation invariance:
           :   -0.0000000000    0.0000000000    0.0000000000

Difference to rotation invariance:
           :    0.0000000082    0.0000000005   -0.0000000098

Norm of the Cartesian gradient     ...    0.0220242076
RMS gradient                       ...    0.0036707013
MAX gradient                       ...    0.0105752414
------------------------------------------------------------------------------
                         ORCA GEOMETRY RELAXATION STEP
------------------------------------------------------------------------------

Reading the OPT-File                    .... done
Getting information on internals        .... done
Copying old internal coords+grads       .... done
Making the new internal coordinates     .... (2022 redundants) done
Validating the new internal coordinates .... (2022 redundants) done
Calculating the B-matrix                .... done
Calculating the G,G- and P matrices     .... done
Transforming gradient to internals      .... done
Projecting the internal gradient        .... done
Number of atoms                         ....  12
Number of internal coordinates          .... 108
Current Energy                          ....   -14.276561092 Eh
Current gradient norm                   ....     0.022024208 Eh/bohr
Maximum allowed component of the step   ....  0.300
Current trust radius                    ....  0.700
Updating the Hessian (BFGS)             .... done
Forming the augmented Hessian           .... done
Diagonalizing the augmented Hessian     .... done
Last element of RFO vector              ....  0.945775207
Lowest eigenvalues of augmented Hessian:
 -0.002020454  0.000177470  0.000336828  0.005336840  0.006318231
Length of the computed step             ....  0.343445127
The final length of the internal step   ....  0.343445127
Converting the step to Cartesian space:
 Initial RMS(Int)=    0.0330480227
Transforming coordinates:
 Iter   0:  RMS(Cart)=    0.0275769548 RMS(Int)=    0.0299658420
 Iter   5:  RMS(Cart)=    0.0000048527 RMS(Int)=    0.0000589407
 Iter  10:  RMS(Cart)=    0.0000000691 RMS(Int)=    0.0000008487
done
Storing new coordinates                 .... done
The predicted energy change is          ....    -0.001129388
Previously predicted energy change      ....    -0.000527196
Actually observed energy change         ....    -0.000735091
Ratio of predicted to observed change   ....     1.394342516
New trust radius                        ....     0.700000000

                                .--------------------.
          ----------------------|Geometry convergence|-------------------------
          Item                value                   Tolerance       Converged
          ---------------------------------------------------------------------
          Energy change      -0.0007350912            0.0000010000      NO
          RMS gradient        0.0011220654            0.0000300000      NO
          MAX gradient        0.0039385047            0.0001000000      NO
          RMS step            0.0330480227            0.0006000000      NO
          MAX step            0.1307233666            0.0010000000      NO
          -------------------------------------------------------------------------
          ........................................................
          Max(Bonds)      0.0386      Max(Angles)    3.37
          Max(Dihed)        7.49      Max(Improp)    0.00
          ---------------------------------------------------------------------

The optimization has not yet converged - more geometry cycles are needed


    ---------------------------------------------------------------------------
                         Redundant Internal Coordinates
                            (Angstroem and degrees)

        Definition                    Value    dE/dq     Step     New-Value
    ----------------------------------------------------------------------------
     1. B(B   3,B   0)                1.5852  0.000180 -0.0084    1.5768   
     2. B(B   3,B   2)                1.5278 -0.000126 -0.0064    1.5215   
     3. B(B   5,B   4)                2.1651 -0.003806  0.0086    2.1737   
     4. B(B   5,B   1)                1.5118 -0.003939  0.0065    1.5183   
     5. B(B   6,B   5)                1.5134  0.001668 -0.0166    1.4968   
     6. B(B   7,B   1)                1.5168 -0.000098 -0.0110    1.5058   
     7. B(B   7,B   0)                1.5740 -0.000925 -0.0109    1.5631   
     8. B(B   7,B   3)                1.7691  0.000925 -0.0386    1.7305   
     9. B(B   8,B   4)                1.7465 -0.001712  0.0213    1.7678   
    10. B(B   9,B   4)                1.5590 -0.001733  0.0122    1.5712   
    11. B(B   9,B   3)                2.0682  0.000002  0.0346    2.1028   
    12. B(B   9,B   0)                1.5220 -0.001780  0.0011    1.5231   
    13. B(B  10,B   8)                1.5146 -0.000425  0.0127    1.5273   
    14. B(B  10,B   2)                1.5133 -0.000256 -0.0052    1.5081   
    15. B(B  11,B   4)                1.6736 -0.001297  0.0206    1.6942   
    16. B(B  11,B   8)                1.5447  0.002198 -0.0107    1.5341   
    17. B(B  11,B   6)                1.5113 -0.003904  0.0067    1.5179   
    18. A(B   7,B   0,B   9)           85.65 -0.000453    0.52     86.17   
    19. A(B   3,B   0,B   9)           83.43  0.000472    2.11     85.54   
    20. A(B   3,B   0,B   7)           68.11  0.000541   -1.14     66.97   
    21. A(B   5,B   1,B   7)          132.33  0.000778   -0.13    132.20   
    22. A(B   3,B   2,B  10)          128.80 -0.001827    2.88    131.68   
    23. A(B   0,B   3,B   7)           55.65 -0.000542    0.45     56.09   
    24. A(B   2,B   3,B   9)           98.73  0.000820   -1.82     96.92   
    25. A(B   0,B   3,B   9)           46.98 -0.000605   -0.91     46.07   
    26. A(B   2,B   3,B   7)          134.63  0.000288   -1.17    133.45   
    27. A(B   7,B   3,B   9)           66.00 -0.001069    0.08     66.08   
    28. A(B   0,B   3,B   2)          141.59  0.000107   -3.07    138.52   
    29. A(B   8,B   4,B  11)           53.65  0.001240   -1.03     52.62   
    30. A(B   5,B   4,B  11)           90.58 -0.000715    0.48     91.06   
    31. A(B   5,B   4,B   8)          116.76 -0.000593   -0.68    116.07   
    32. A(B   9,B   4,B  11)          178.58  0.000448   -1.94    176.64   
    33. A(B   8,B   4,B   9)          126.36 -0.001234   -0.92    125.43   
    34. A(B   5,B   4,B   9)           90.59  0.000353   -0.07     90.51   
    35. A(B   1,B   5,B   6)          160.49  0.001952   -2.34    158.15   
    36. A(B   4,B   5,B   6)           58.57  0.001743   -1.85     56.71   
    37. A(B   1,B   5,B   4)          102.19  0.000136   -0.59    101.60   
    38. A(B   5,B   6,B  11)          130.78 -0.002997    3.37    134.15   
    39. A(B   0,B   7,B   1)          132.89 -0.000469   -0.15    132.74   
    40. A(B   1,B   7,B   3)          122.49 -0.000634    2.35    124.85   
    41. A(B   0,B   7,B   3)           56.25  0.000001    0.69     56.94   
    42. A(B   4,B   8,B  11)           60.76 -0.000448    0.45     61.22   
    43. A(B   4,B   8,B  10)           97.71  0.001377    0.04     97.74   
    44. A(B  10,B   8,B  11)          151.92  0.000809    0.54    152.46   
    45. A(B   3,B   9,B   4)          115.53  0.000810   -0.64    114.89   
    46. A(B   0,B   9,B   4)          163.40  0.000934   -1.84    161.56   
    47. A(B   0,B   9,B   3)           49.59  0.000134   -1.19     48.40   
    48. A(B   2,B  10,B   8)          142.21  0.000268   -1.52    140.69   
    49. A(B   4,B  11,B   6)           72.46  0.002221   -3.01     69.44   
    50. A(B   6,B  11,B   8)          122.06  0.000798   -1.32    120.74   
    51. A(B   4,B  11,B   8)           65.59 -0.000792    0.57     66.16   
    52. D(B   9,B   3,B   2,B  10)     -6.83  0.000223   -0.36     -7.20   
    53. D(B   9,B   3,B   0,B   7)     87.94 -0.000733    0.32     88.26   
    54. D(B   7,B   3,B   2,B  10)     57.92 -0.000562    1.20     59.12   
    55. D(B   7,B   3,B   0,B   9)    -87.94  0.000733   -0.32    -88.26   
    56. D(B   2,B   3,B   0,B   9)     32.56  0.000615    0.20     32.75   
    57. D(B   0,B   3,B   2,B  10)    -30.29 -0.000005   -0.28    -30.57   
    58. D(B   2,B   3,B   0,B   7)    120.50 -0.000117    0.51    121.01   
    59. D(B   6,B   5,B   4,B   9)    161.80  0.000553   -1.31    160.49   
    60. D(B   6,B   5,B   1,B   7)     16.48 -0.001178   -3.07     13.41   
    61. D(B   1,B   5,B   4,B   8)    110.31 -0.000302    0.16    110.48   
    62. D(B   6,B   5,B   4,B   8)    -66.21 -0.000979   -0.03    -66.23   
    63. D(B   4,B   5,B   1,B   7)      7.56 -0.000465   -1.58      5.98   
    64. D(B   1,B   5,B   4,B  11)    159.11  0.000965   -0.71    158.41   
    65. D(B   1,B   5,B   4,B   9)    -21.68  0.001229   -1.12    -22.80   
    66. D(B  11,B   6,B   5,B   1)     15.71 -0.000219    4.04     19.75   
    67. D(B  11,B   6,B   5,B   4)     25.94 -0.001237    2.77     28.71   
    68. D(B   1,B   7,B   3,B   9)     69.91 -0.000187    0.06     69.97   
    69. D(B   1,B   7,B   3,B   2)     -8.21 -0.000093   -0.64     -8.84   
    70. D(B   1,B   7,B   3,B   0)    123.02 -0.000341   -1.18    121.84   
    71. D(B   0,B   7,B   3,B   9)    -53.11  0.000154    1.24    -51.86   
    72. D(B   0,B   7,B   3,B   2)   -131.22  0.000248    0.54   -130.68   
    73. D(B   0,B   7,B   1,B   5)     21.45 -0.001220    3.53     24.97   
    74. D(B   3,B   7,B   0,B   9)     84.66  0.000667    1.82     86.48   
    75. D(B   1,B   7,B   0,B   9)    -20.48  0.001369   -2.10    -22.58   
    76. D(B   3,B   7,B   1,B   5)    -50.65 -0.000560    1.04    -49.61   
    77. D(B   1,B   7,B   0,B   3)   -105.13  0.000702   -3.92   -109.06   
    78. D(B  11,B   8,B   4,B   5)     69.09  0.000535    0.22     69.31   
    79. D(B  10,B   8,B   4,B  11)   -160.84 -0.000066   -0.67   -161.50   
    80. D(B  10,B   8,B   4,B   9)     20.92 -0.000650    0.92     21.85   
    81. D(B  11,B   8,B   4,B   9)   -178.24 -0.000584    1.59   -176.65   
    82. D(B  10,B   8,B   4,B   5)    -91.74  0.000470   -0.45    -92.19   
    83. D(B   3,B   9,B   4,B   8)    -40.02  0.000771   -0.76    -40.78   
    84. D(B   0,B   9,B   4,B  11)   -153.88 -0.000583    7.49   -146.39   
    85. D(B   0,B   9,B   4,B   8)    -64.20 -0.000081    2.30    -61.90   
    86. D(B   0,B   9,B   4,B   5)     60.31 -0.001201    3.96     64.27   
    87. D(B   4,B   9,B   3,B   7)   -106.59 -0.000043    0.84   -105.75   
    88. D(B   4,B   9,B   3,B   2)     28.61  0.000134    0.51     29.12   
    89. D(B   4,B   9,B   3,B   0)   -171.16 -0.000209    0.26   -170.90   
    90. D(B   0,B   9,B   3,B   7)     64.57  0.000167    0.58     65.15   
    91. D(B   0,B   9,B   3,B   2)   -160.23  0.000343    0.24   -159.99   
    92. D(B   4,B   9,B   0,B   7)    -39.39  0.000206   -2.12    -41.51   
    93. D(B   3,B   9,B   4,B   5)     84.49 -0.000348    0.91     85.40   
    94. D(B   4,B   9,B   0,B   3)     29.03  0.000776   -3.68     25.36   
    95. D(B   3,B   9,B   0,B   7)    -68.43 -0.000570    1.56    -66.87   
    96. D(B   2,B  10,B   8,B  11)    -27.81 -0.000492    1.54    -26.27   
    97. D(B   2,B  10,B   8,B   4)      9.68  0.000332    0.82     10.49   
    98. D(B   8,B  10,B   2,B   3)    -14.50 -0.000143   -1.25    -15.74   
    99. D(B   6,B  11,B   8,B  10)     -3.83 -0.000681    1.78     -2.06   
   100. D(B   6,B  11,B   8,B   4)    -47.55 -0.001771    2.90    -44.66   
   101. D(B   8,B  11,B   6,B   5)     14.38  0.002140   -4.45      9.93   
   102. D(B   4,B  11,B   6,B   5)    -30.42  0.001586   -2.86    -33.29   
   103. D(B   8,B  11,B   4,B   9)     90.72  0.000125   -3.71     87.01   
   104. D(B   8,B  11,B   4,B   5)   -123.47  0.000751    0.68   -122.79   
   105. D(B   4,B  11,B   8,B  10)     43.72  0.001090   -1.12     42.60   
   106. D(B   6,B  11,B   4,B   9)   -130.26 -0.000238    1.76   -128.50   
   107. D(B   6,B  11,B   4,B   8)    139.02 -0.000363   -0.27    138.75   
   108. D(B   6,B  11,B   4,B   5)     15.55  0.000387    0.41     15.96   
    ----------------------------------------------------------------------------

Geometry step timings:
Preparation and reading OPT file:      0.000 s ( 0.820 %)
Internal coordinates            :      0.000 s ( 1.549 %)
B/P matrices and projection     :      0.001 s (23.481 %)
Hessian update/contruction      :      0.001 s (15.917 %)
Making the step                 :      0.001 s (28.979 %)
Converting the step to Cartesian:      0.000 s ( 3.797 %)
Storing new data                :      0.000 s ( 1.185 %)
Checking convergence            :      0.000 s ( 1.549 %)
Final printing                  :      0.001 s (22.661 %)
Total time                      :      0.003 s

Time for energy+gradient        :      0.049 s
Time for complete geometry iter :      0.053 s




    ----------------------------------------------------------------------------
                                  WARNING !!!
       The optimization did not converge but reached the maximum number of
       optimization cycles.
       Please check your results very carefully.
    ----------------------------------------------------------------------------



--------------------------------
SUGGESTED CITATIONS FOR THIS RUN
--------------------------------

Below you find a list of papers that are relevant to this ORCA run
We neither can nor want to force you to cite these papers, but we appreciate if you do
You receive ORCA, which is the product of decades of hard work by many enthusiastic individuals, for free
The only thing we kindly ask in return is that you cite our papers,
We deeply appreciate it, if you show your appreciation for ORCA by not just citing the generic ORCA reference.

Please note that relegating all ORCA citations to the supporting information does *not* help us.
SI sections are not indexed - citations you put there will not count into any citation statistics
But we need these citations in order to attract the funding resources that allow us to do what we are doing

Therefore, if you are a happy ORCA user, please consider citing a few of the papers listed below in the main body of your paper

In addition to the list printed below, the program has created the file random_d1.90_006_m1.bibtex that contains the list in bibtex format
You can import this file easily into all common literature databanks and citation aid programs

It goes without saying that in many instances, there are alternative algorithms to achieve similar
results as the ones you have gotten from ORCA. It is, of course, also the case that in some instances
ORCA just re-implements algorithms worked out by others. We are fully aware of that and we are also
fully appreciative of our colleagues work. Hence this citation list should not be read as indicating
that the listed papers, which are focused on our own work, are the only ones worth citing. It simply
meant to make it easier for users to cite ORCA specific papers. It is not a substitute for doing your
own literature research and citing the relevant literature in a scientifically appropriate manner.

List of essential papers. We consider these as the minimum necessary citations

  1. Bannwarth, C.; Ehlert, S.; Grimme, S.
     GFN2-xTB—An Accurate and Broadly Parametrized Self-Consistent Tight-Binding Quantum Chemical Method with Multipole Electrostatics and Density-Dependent Dispersion Contributions
     J. Chem. Theory Comput. 2019 15(3), 1652-1671
     doi.org/10.1021/acs.jctc.8b01176
  2. Neese, F.
     Software update: the ORCA program system, version 6.0
     WIRES Comput. Molec. Sci. 2025 15(1), e70019
     doi.org/10.1002/wcms.70019

List of papers to cite with high priority. The work reported in these papers was absolutely
necessary for this run to complete.
Our perspective: the developers of density functionals and basis sets usually get cited in chemistry papers
Good! But without the algorithms to do something with them, the functionals or basis sets would not do anything.
Hence, in our opinion, the algorithm design and method developments papers are equally worthy of getting cited

  1. Bannwarth, C.; Caldeweyher, E.; Ehlert, S.; Hansen, A.; Pracht, P.; Seibert, J.; Spicher, S.; Grimme, S.
     Extended tight-binding quantum chemistry methods
     WIRES Comput. Molec. Sci. 2020 11(2), e1493
     doi.org/10.1002/wcms.1493

List of suggested additional citations. These are papers that are important in the 'surrounding' of 
of this run, or papers that preceded the highly important papers. If you like your results we are grateful for a citation.

  1. Neese, F.
     The ORCA program system
     WIRES Comput. Molec. Sci. 2012 2(1), 73-78
     doi.org/10.1002/wcms.81
  2. Neese, F.
     Software update: the ORCA program system, version 4.0
     WIRES Comput. Molec. Sci. 2018 8(1), 1-6
     doi.org/10.1002/wcms.1327
  3. Neese, F.; Wennmohs, F.; Becker, U.; Riplinger, C.
     The ORCA quantum chemistry program package
     J. Chem. Phys. 2020 152(22), 224108
     doi.org/10.1063/5.0004608
  4. Neese, F.
     Software update: The ORCA program system—Version 5.0
     WIRES Comput. Molec. Sci. 2022 12(1), e1606
     doi.org/10.1002/wcms.1606

List of optional additional citations

  1. Neese, F.
     Approximate second-order SCF convergence for spin unrestricted wavefunctions
     Chem. Phys. Lett. 2000 325(1-3), 93-98
     doi.org/10.1016/s0009-2614(00)00662-x

Timings for individual modules:

Sum of individual times          ...        3.868 sec (=   0.064 min)
Geometry relaxation              ...        1.167 sec (=   0.019 min)  30.2 %
XTB module                       ...        2.701 sec (=   0.045 min)  69.8 %
                             ****ORCA TERMINATED NORMALLY****
TOTAL RUN TIME: 0 days 0 hours 0 minutes 4 seconds 334 msec
