
                                 *****************
                                 * O   R   C   A *
                                 *****************

                                            #,                                       
                                            ###                                      
                                            ####                                     
                                            #####                                    
                                            ######                                   
                                           ########,                                 
                                     ,,################,,,,,                         
                               ,,#################################,,                 
                          ,,##########################################,,             
                       ,#########################################, ''#####,          
                    ,#############################################,,   '####,        
                  ,##################################################,,,,####,       
                ,###########''''           ''''###############################       
              ,#####''   ,,,,##########,,,,          '''####'''          '####       
            ,##' ,,,,###########################,,,                        '##       
           ' ,,###''''                  '''############,,,                           
         ,,##''                                '''############,,,,        ,,,,,,###''
      ,#''                                            '''#######################'''  
     '                                                          ''''####''''         
             ,#######,   #######,   ,#######,      ##                                
            ,#'     '#,  ##    ##  ,#'     '#,    #''#        ,####,    ,#,          
            ##       ##  ##   ,#'  ##            #'  '#       #'       ,# #          
            ##       ##  #######   ##           ,######,      #####,      #          
            '#,     ,#'  ##    ##  '#,     ,#' ,#      #,     #,   #      #          
             '#######'   ##     ##  '#######'  #'      '#     '####' #    #          



                #########################################################
                #                        -***-                          #
                #          Department of theory and spectroscopy        #
                #                                                       #
                #                      Frank Neese                      #
                #                                                       #
                #     Directorship, Architecture, Infrastructure        #
                #                    SHARK, DRIVERS                     #
                #        Core code/Algorithms in most modules           #
                #                                                       #
                #        Max Planck Institute fuer Kohlenforschung      #
                #                Kaiser Wilhelm Platz 1                 #
                #                 D-45470 Muelheim/Ruhr                 #
                #                      Germany                          #
                #                                                       #
                #                  All rights reserved                  #
                #                        -***-                          #
                #########################################################


                         Program Version 6.1.1  -  RELEASE   -
                                (GIT: $487d211c$)
                          ($2025-11-21 10:33:24 +0100$)
                                                                         
                                  - NO-DMRG VERSION -                    
                                                                         


 With contributions from (in alphabetic order):
[Max-Planck-Institut fuer Kohlenforschung]                               
  Daniel Aravena         : Magnetic Suceptibility                        
  Michael Atanasov       : Ab Initio Ligand Field Theory (pilot matlab implementation)
  Alexander A. Auer      : GIAO ZORA, VPT2 properties, NMR spectrum      
  Ute Becker             : All parallelization in ORCA, NUMFREQ, NUMCALC 
  Giovanni Bistoni       : ED, misc. LED, open-shell LED, HFLD           
  Dmytro Bykov           : pre 5.0 version of the SCF Hessian            
  Marcos Casanova-Páez   : Triplet and SCS-CIS(D). UHF-(DLPNO)-IP/EA/STEOM-CCSD. UHF-CVS-IP/STEOM-CCSD   
  Vijay G. Chilkuri      : MRCI spin determinant printing, contributions to CSF-ICE 
  Pauline Colinet        : FMM embedding                                 
  Dipayan Datta          : RHF DLPNO-CCSD density                        
  Achintya Kumar Dutta   : EOM-CC, STEOM-CC                              
  Nicolas Foglia         : Exact transition moments, OPA infrastructure, MCD improvements    
  Dmitry Ganyushin       : Spin-Orbit,Spin-Spin,Magnetic field MRCI      
  Miquel Garcia-Rates    : C-PCM and meta-GGA Hessian, CCSD/C-PCM, Gaussian charge scheme 
  Tiago L. C. Gouveia    : GS-ROHF, GS-ROCIS                             
  Yang Guo               : DLPNO-NEVPT2, F12-NEVPT2, CIM, IAO-localization        
  Andreas Hansen         : Spin unrestricted coupled pair/coupled cluster methods 
  Ingolf Harden          : AUTO-CI MPn and infrastructure                
  Benjamin Helmich-Paris : MC-RPA, TRAH-(SCF,CASSCF), AVAS, COSX integrals, SCF dyn. polar., MC-PDFT, srDFT 
  Lee Huntington         : MR-EOM, pCC                                   
  Robert Izsak           : Overlap fitted RIJCOSX, COSX-SCS-MP3, EOM     
  Riya Kayal             : Wick's Theorem for AUTO-CI, AUTO-CI UHF-CCSDT 
  Emily Kempfer          : AUTO-CI RHF CISDT and CCSDT, approximate NEVPT4
  Christian Kollmar      : KDIIS, OOCD, Brueckner-CCSD(T), CCSD density, CASPT2, CASPT2-K, improved NEVPT2 
  Axel Koslowski         : Symmetry handling                             
  Simone Kossmann        : meta-GGA functionals, TD-DFT gradient, OOMP2, (MP2 Hessian; deprecated post 5.0) 
  Lucas Lang             : DCDCAS, Hyperfine gauge corrections, ICE-SOC+SSC
  Marvin Lechner         : AUTO-CI (C++ implementation), FIC-MRCC        
  Spencer Leger          : CASSCF response                               
  Dagmar Lenk            : GEPOL surface, SMD, ORCA-2-JSON               
  Dimitrios Liakos       : Extrapolation schemes; Compound Job, Property file
  Dimitrios Manganas     : Further ROCIS development; embedding schemes. LFT, Crystal Embedding 
  Dimitrios Pantazis     : SARC Basis sets                               
  Anastasios Papadopoulos: AUTO-CI, single reference methods and gradients 
  Taras Petrenko         : pre 6.0 DFT Hessian and TD-DFT gradient,  ECA, NRVS 
  Petra Pikulova         : Analytic Raman intensities                    
  Peter Pinski           : DLPNO-MP2, DLPNO-MP2 Gradient                 
  Shashank Vittal Rao    : ES-AILFT, MagRelax                            
  Christoph Reimann      : Effective Core Potentials                     
  Marius Retegan         : Local ZFS, SOC                                
  Christoph Riplinger    : Optimizer, TS searches, QM/MM, DLPNO-CCSD(T), (RO)-DLPNO pert. Triples 
  Michael Roemelt        : Original ROCIS implementation, recursive CI coupling coefficients
  Masaaki Saitow         : Open-shell DLPNO-CCSD energy and density      
  Barbara Sandhoefer     : DKH picture change effects                    
  Yorick L. A. Schmerwitz: GMF and freeze-and-release deltaSCF, NEB S-IDPP initial path                    
  Kantharuban Sivalingam : CASSCF convergence/infrastructure, NEVPT2, NEVPT3, NEVPT4(SD), FIC-MRCI and CEPA variants
  Bernardo de Souza      : ESD, SOC TD-DFT                               
  Georgi L. Stoychev     : AutoAux, RI-MP2 NMR, DLPNO-MP2 response, X2C  
  Van Anh Tran           : RI-MP2 g-tensors                              
  Willem Van den Heuvel  : Paramagnetic NMR                              
  Zikuan Wang            : NOTCH, Electric field optimization            
  Frank Wennmohs         : Technical directorship and infrastructure     
  Hang Xu                : AUTO-CI-Response properties                   
                                                                         
[FACCTs GmbH]                                                            
  Markus Bursch, Nicolas Foglia, Miquel Garcia-Rates, Ingolf Harden, Hagen Neugebauer, Anastasios Papadopoulos, 
  Christoph Riplinger, Bernardo de Souza, Georgi L. Stoychev                                                    
                                                                 
  APM, various basis sets, CI-OPT, improved COSX, DLPNO-Multilevel,           
  DOCKER, DRACO, updates on ESD, Fragmentator, GOAT, IRC, LR-CPCM, L-BFGS, MBIS, meta-GGA TD-DFT gradient, ML-optimized integration grids, 
  MM, NACMEs, nearIR, NEB, NEB-TS, NL-DFT gradient (VV10), 2- and 3-layer-ONIOM, interface openCOSMO-RS, QMMM,   
  Crystal-QMMM, RESP, rigid body optimization, SF, symmetry and pop. for TD-DFT, various functionals, SOLVATOR                                   
                                                                         
[Other institutions]                                                     
  V. Asgeirsson          : NEB                                           
  Christoph Bannwarth    : sTDA-DFT, sTD-DFT, PBEh-3c, B97-3c, D3        
  Giovanni Bistoni       : ETS/NOCV, ADLD/ADEX, COVALED                  
  Martin Brehm           : Molecular dynamics                            
  Ronald Cardenas        : ETS/NOCV                                      
  Martina Colucci        : COVALED                                       
  Sebastian Ehlert       : rSCAN, r2SCAN, r2SCAN-3c, D4, dhf basis sets  
  Marvin Friede          : D4 for Fr, Ra, Ac-Lr                          
  Lars Goerigk           : TD-DFT with DH, B97 family of functionals     
  Stefan Grimme          : VdW corrections, initial TS optimization, DFT functionals, gCP, sTDA/sTD-DF 
  Waldemar Hujo          : DFT-NL                                        
  H. Jonsson             : NEB                                           
  Holger Kruse           : gCP                                           
  Marcel Mueller         : wB97X-3c, vDZP basis set                      
  Hagen Neugebauer       : wr2SCAN, Native XTB                           
  Gianluca Regni         : ADLD/ADEX                                     
  Tobias Risthaus        : pre 6.0 range-separated hybrid DFT and stability analysis
  Lukas Wittmann         : regularized MP2, r2SCAN double-hybrids, wr2SCAN        
                                                                         
We gratefully acknowledge several colleagues who have allowed us to      
interface, adapt or use parts of their codes:                            
  Ed Valeev, F. Pavosevic, A. Kumar             : LibInt (2-el integral package), F12 methods 
  Garnet Chan, S. Sharma, J. Yang, R. Olivares  : DMRG                   
  Ulf Ekstrom                                   : XCFun DFT Library      
  Mihaly Kallay                                 : mrcc  (arbitrary order and MRCC methods)
  Frank Weinhold                                : gennbo (NPA and NBO analysis)           
  Simon Mueller                                 : openCOSMO-RS                            
  Christopher J. Cramer and Donald G. Truhlar   : smd solvation model                     
  S Lehtola, MJT Oliveira, MAL Marques          : LibXC Library                           
  Liviu Ungur et al                             : ANISO software                          


 Your calculation uses the libint2 library for the computation of 2-el integrals
 For citations please refer to: http://libint.valeyev.net

 Your ORCA version has been built with support for libXC version: 7.0.0
 For citations please refer to: https://libxc.gitlab.io

 This ORCA versions uses:
   CBLAS   interface :  Fast vector & matrix operations
   LAPACKE interface :  Fast linear algebra routines
   SCALAPACK package :  Parallel linear algebra routines
   Shared memory     :  Shared parallel matrices
   BLAS/LAPACK       :  OpenBLAS 0.3.29  USE64BITINT DYNAMIC_ARCH NO_AFFINITY Zen SINGLE_THREADED
        Core in use  :  Zen
   Copyright (c) 2011-2014, The OpenBLAS Project


  ***********************************
  * Starting time: Fri Apr 17 12:14:00 2026
  * Host name:     vmi3233575
  * Process ID:    330314
  * Working dir.:  /root/orca_b12_vps_pack/jobs/01_xtb/mult_1
  ***********************************

NOTE: MaxCore=500 MB was set to SCF,MP2,MDCI,CIPSI,MRCI,RASCI and CIS
      => If you want to overwrite this, your respective input block should be placed after the MaxCore statement


***************************************
The coordinates will be read from file: ../../../starts/random_d1.50_003.xyz
***************************************


Your calculation utilizes the semiempirical GFN2-xTB method
Please cite in your paper:
Bannwarth, C.; Ehlert S.; Grimme, S. J. Chem. Theory Comput. 2019, 15, 1652.
   

================================================================================

================================================================================
                                        WARNINGS
                       Please study these warnings very carefully!
================================================================================


WARNING: Geometry Optimization
  ===> : Switching off AutoStart
         For restart on a previous wavefunction, please use MOREAD

WARNING: Found dipole moment calculation with XTB calculation
  ===> : Switching off dipole moment calculation

Environment variable XTBEXE for xtb has been set!

================================================================================
                                       INPUT FILE
================================================================================
NAME = random_d1.50_003_m1.inp
|  1> ! GFN2-xTB TightSCF TightOpt
|  2> 
|  3> %pal
|  4>   nprocs 1
|  5> end
|  6> 
|  7> %maxcore 500
|  8> 
|  9> * xyzfile 0 1 ../../../starts/random_d1.50_003.xyz
| 10> 
| 11>                          ****END OF INPUT****
================================================================================

                       *****************************
                       * Geometry Optimization Run *
                       *****************************

Geometry optimization settings:
Update method            Update   .... BFGS
Choice of coordinates    CoordSys .... (2022) Redundant Internals
Initial Hessian          InHess   .... Almloef's Model
Max. no of cycles        MaxIter  .... 50

Convergence Tolerances:
Energy Change            TolE     ....  1.0000e-06 Eh
Max. Gradient            TolMAXG  ....  1.0000e-04 Eh/bohr
RMS Gradient             TolRMSG  ....  3.0000e-05 Eh/bohr
Max. Displacement        TolMAXD  ....  1.0000e-03 bohr
RMS Displacement         TolRMSD  ....  6.0000e-04 bohr
Strict Convergence                .... False

------------------------------------------------------------------------------
                        ORCA OPTIMIZATION COORDINATE SETUP
------------------------------------------------------------------------------

The optimization will be done in redundant internal coordinates (2022)
Making redundant internal coordinates   ...  (2022 redundants) done
Evaluating the initial hessian          ...  (Almloef) done
Evaluating the coordinates              ...  done
Calculating the B-matrix                .... done
Calculating the G-matrix                .... done
The number of degrees of freedom        ....  100

    -----------------------------------------------------------------
                    Redundant Internal Coordinates


    -----------------------------------------------------------------
         Definition                    Initial Value    Approx d2E/dq
    -----------------------------------------------------------------
      1. B(B   2,B   1)                  1.5903         0.401635   
      2. B(B   3,B   1)                  1.1752         1.845453   
      3. B(B   3,B   2)                  1.7107         0.258099   
      4. B(B   5,B   0)                  2.0670         0.069705   
      5. B(B   8,B   5)                  1.4562         0.657262   
      6. B(B   9,B   4)                  1.4585         0.651767   
      7. B(B   9,B   2)                  1.9225         0.118537   
      8. B(B   9,B   8)                  1.7836         0.197397   
      9. B(B   9,B   7)                  1.7693         0.208046   
     10. B(B   9,B   5)                  2.0150         0.084378   
     11. B(B  10,B   6)                  1.9580         0.104014   
     12. B(B  10,B   2)                  1.7742         0.204401   
     13. B(B  10,B   1)                  1.7717         0.206255   
     14. B(B  11,B   7)                  1.7698         0.207716   
     15. B(B  11,B   6)                  1.8015         0.184852   
     16. B(B  11,B  10)                  1.4130         0.770299   
     17. A(B   2,B   1,B  10)           63.4322         0.343398   
     18. A(B   2,B   1,B   3)           74.7410         0.506751   
     19. A(B   3,B   1,B  10)          130.3041         0.448261   
     20. A(B   9,B   2,B  10)          128.1710         0.281607   
     21. A(B   3,B   2,B  10)          100.8206         0.318699   
     22. A(B   1,B   2,B   3)           41.5106         0.356642   
     23. A(B   1,B   2,B  10)           63.2739         0.342878   
     24. A(B   3,B   2,B   9)          130.9079         0.292049   
     25. A(B   1,B   2,B   9)          163.0583         0.313423   
     26. A(B   1,B   3,B   2)           63.7485         0.466964   
     27. A(B   0,B   5,B   8)           88.5856         0.311480   
     28. A(B   8,B   5,B   9)           59.2631         0.321311   
     29. A(B   0,B   5,B   9)           79.0351         0.228800   
     30. A(B  10,B   6,B  11)           43.9072         0.271786   
     31. A(B   9,B   7,B  11)          120.1392         0.308557   
     32. A(B   5,B   8,B   9)           76.1704         0.370587   
     33. A(B   2,B   9,B   4)           94.9423         0.339413   
     34. A(B   5,B   9,B   7)          163.1694         0.268059   
     35. A(B   4,B   9,B   7)          111.1447         0.373415   
     36. A(B   2,B   9,B   7)           74.5328         0.282379   
     37. A(B   4,B   9,B   5)           82.3305         0.320870   
     38. A(B   2,B   9,B   5)           94.8541         0.246652   
     39. A(B   7,B   9,B   8)          118.7894         0.306040   
     40. A(B   5,B   9,B   8)           44.5665         0.265942   
     41. A(B   4,B   9,B   8)          121.9687         0.370053   
     42. A(B   2,B   9,B   8)           72.8992         0.280093   
     43. A(B   1,B  10,B  11)          128.8511         0.383800   
     44. A(B   2,B  10,B   6)           75.4350         0.275993   
     45. A(B   1,B  10,B   6)           78.0108         0.276375   
     46. A(B   1,B  10,B   2)           53.2939         0.307332   
     47. A(B   6,B  10,B  11)           62.1492         0.341484   
     48. A(B   2,B  10,B  11)           85.0232         0.383198   
     49. A(B   6,B  11,B   7)          115.1006         0.302761   
     50. A(B   7,B  11,B  10)          114.5938         0.384271   
     51. A(B   6,B  11,B  10)           73.9436         0.376580   
     52. D(B   9,B   2,B   1,B   3)    -71.4341         0.010000   
     53. D(B   9,B   2,B   1,B  10)    136.1842         0.010000   
     54. D(B  10,B   2,B   1,B   3)    152.3817         0.010000   
     55. D(B   3,B   2,B   1,B  10)   -152.3817         0.010000   
     56. D(B   1,B   3,B   2,B   9)    158.5615         0.010000   
     57. D(B   1,B   3,B   2,B  10)    -24.9324         0.010000   
     58. D(B   2,B   3,B   1,B  10)     32.9349         0.181510   
     59. D(B   9,B   8,B   5,B   0)     78.0721         0.018307   
     60. D(B   4,B   9,B   2,B   3)   -103.5068         0.010000   
     61. D(B   8,B   9,B   7,B  11)     61.9305         0.010000   
     62. D(B   5,B   9,B   2,B   1)     35.4240         0.010000   
     63. D(B   5,B   9,B   2,B   3)    -20.8085         0.010000   
     64. D(B   7,B   9,B   8,B   5)   -176.8366         0.010000   
     65. D(B   7,B   9,B   2,B   1)   -157.8685         0.010000   
     66. D(B   5,B   9,B   7,B  11)     54.2446         0.010000   
     67. D(B   2,B   9,B   7,B  11)      1.9431         0.010000   
     68. D(B   7,B   9,B   5,B   8)      9.6153         0.010000   
     69. D(B   7,B   9,B   5,B   0)    -85.3157         0.010000   
     70. D(B   4,B   9,B   5,B   8)    153.8991         0.010000   
     71. D(B   4,B   9,B   5,B   0)     58.9681         0.010000   
     72. D(B   4,B   9,B   2,B  10)     80.8598         0.010000   
     73. D(B   4,B   9,B   7,B  11)    -87.4164         0.010000   
     74. D(B   4,B   9,B   2,B   1)    -47.2742         0.010000   
     75. D(B   2,B   9,B   5,B   8)     59.5515         0.010000   
     76. D(B   2,B   9,B   8,B   5)   -116.0088         0.010000   
     77. D(B   4,B   9,B   8,B   5)    -30.9285         0.010000   
     78. D(B   2,B   9,B   5,B   0)    -35.3795         0.010000   
     79. D(B   5,B   9,B   2,B  10)    163.5581         0.010000   
     80. D(B   6,B  10,B   1,B   3)     44.7517         0.010000   
     81. D(B   6,B  10,B   1,B   2)     80.6568         0.010000   
     82. D(B   2,B  10,B   1,B   3)    -35.9051         0.010000   
     83. D(B   2,B  10,B   6,B  11)    -92.0580         0.010000   
     84. D(B   1,B  10,B   6,B  11)   -146.8777         0.010000   
     85. D(B   6,B  10,B   2,B   9)    109.1131         0.010000   
     86. D(B   6,B  10,B   2,B   3)    -67.5283         0.010000   
     87. D(B   6,B  10,B   2,B   1)    -85.7565         0.010000   
     88. D(B   1,B  10,B   2,B   9)   -165.1304         0.010000   
     89. D(B  11,B  10,B   2,B   1)   -148.2478         0.010000   
     90. D(B   1,B  10,B   2,B   3)     18.2282         0.010000   
     91. D(B  11,B  10,B   1,B   3)      6.4083         0.010000   
     92. D(B  11,B  10,B   1,B   2)     42.3134         0.010000   
     93. D(B   7,B  11,B  10,B   6)   -110.7161         0.030483   
     94. D(B   7,B  11,B  10,B   2)    -34.5725         0.030483   
     95. D(B   7,B  11,B  10,B   1)    -67.3748         0.030483   
     96. D(B   6,B  11,B  10,B   2)     76.1436         0.030483   
     97. D(B   6,B  11,B  10,B   1)     43.3412         0.030483   
     98. D(B  10,B  11,B   7,B   9)     28.0251         0.010000   
     99. D(B   6,B  11,B   7,B   9)    -54.9969         0.010000   
    100. D(B   7,B  11,B   6,B  10)    110.0851         0.010000   
    -----------------------------------------------------------------

Number of atoms                         .... 12
Number of degrees of freedom            .... 100


         *************************************************************
         *                GEOMETRY OPTIMIZATION CYCLE   1            *
         *************************************************************
---------------------------------
CARTESIAN COORDINATES (ANGSTROEM)
---------------------------------
  B     0.625294   -0.353633    1.973674
  B    -1.645316    0.171820    0.961882
  B    -0.314936    0.107052    0.093032
  B    -1.344008   -0.963901    0.941805
  B     2.047828    0.790298    0.599734
  B     1.952976   -1.513421    0.894487
  B    -2.094413   -0.066505   -1.334444
  B     0.743012    0.870510   -1.726324
  B     0.910639   -1.715172   -0.102198
  B     1.520498   -0.075302   -0.449014
  B    -1.436646    1.434664   -0.263101
  B    -0.964930    1.313589   -1.589535

----------------------------
CARTESIAN COORDINATES (A.U.)
----------------------------
  NO LB    ZA    FRAG    MASS        X           Y           Z
   0 B   5.0000    0    10.810    1.181635   -0.668269    3.729704
   1 B   5.0000    0    10.810   -3.109196    0.324693    1.817694
   2 B   5.0000    0    10.810   -0.595142    0.202299    0.175806
   3 B   5.0000    0    10.810   -2.539807   -1.821508    1.779754
   4 B   5.0000    0    10.810    3.869835    1.493446    1.133333
   5 B   5.0000    0    10.810    3.690589   -2.859951    1.690335
   6 B   5.0000    0    10.810   -3.957867   -0.125677   -2.521734
   7 B   5.0000    0    10.810    1.404090    1.645025   -3.262280
   8 B   5.0000    0    10.810    1.720857   -3.241205   -0.193125
   9 B   5.0000    0    10.810    2.873325   -0.142299   -0.848513
  10 B   5.0000    0    10.810   -2.714867    2.711122   -0.497188
  11 B   5.0000    0    10.810   -1.823453    2.482324   -3.003785

      -----------------------------------------------------------      
     |                   =====================                   |     
     |                           x T B                           |     
     |                   =====================                   |     
     |                         S. Grimme                         |     
     |          Mulliken Center for Theoretical Chemistry        |     
     |                    University of Bonn                     |     
      -----------------------------------------------------------      

   * xtb version 6.6.1 (unknown) compiled by 'builduser@buildhost' on 2023-08-07

   xtb is free software: you can redistribute it and/or modify it under
   the terms of the GNU Lesser General Public License as published by
   the Free Software Foundation, either version 3 of the License, or
   (at your option) any later version.
   
   xtb is distributed in the hope that it will be useful,
   but WITHOUT ANY WARRANTY; without even the implied warranty of
   MERCHANTABILITY or FITNESS FOR A PARTICULAR PURPOSE.  See the
   GNU Lesser General Public License for more details.
   
   Cite this work as:
   * C. Bannwarth, E. Caldeweyher, S. Ehlert, A. Hansen, P. Pracht,
     J. Seibert, S. Spicher, S. Grimme, WIREs Comput. Mol. Sci., 2020, 11,
     e01493. DOI: 10.1002/wcms.1493
   
   for GFN2-xTB:
   * C. Bannwarth, S. Ehlert and S. Grimme., J. Chem. Theory Comput., 2019,
     15, 1652-1671. DOI: 10.1021/acs.jctc.8b01176
   for GFN1-xTB:
   * S. Grimme, C. Bannwarth, P. Shushkov, J. Chem. Theory Comput., 2017,
     13, 1989-2009. DOI: 10.1021/acs.jctc.7b00118
   for GFN0-xTB:
   * P. Pracht, E. Caldeweyher, S. Ehlert, S. Grimme, ChemRxiv, 2019, preprint.
     DOI: 10.26434/chemrxiv.8326202.v1
   for GFN-FF:
   * S. Spicher and S. Grimme, Angew. Chem. Int. Ed., 2020, 59, 15665-15673.
     DOI: 10.1002/anie.202004239
   
   for ALPB and GBSA implicit solvation:
   * S. Ehlert, M. Stahn, S. Spicher, S. Grimme, J. Chem. Theory Comput.,
     2021, 17, 4250-4261. DOI: 10.1021/acs.jctc.1c00471
   
   for DFT-D4:
   * E. Caldeweyher, C. Bannwarth and S. Grimme, J. Chem. Phys., 2017,
     147, 034112. DOI: 10.1063/1.4993215
   * E. Caldeweyher, S. Ehlert, A. Hansen, H. Neugebauer, S. Spicher,
     C. Bannwarth and S. Grimme, J. Chem. Phys., 2019, 150, 154122.
     DOI: 10.1063/1.5090222
   * E. Caldeweyher, J.-M. Mewes, S. Ehlert and S. Grimme, Phys. Chem. Chem. Phys.
     2020, 22, 8499-8512. DOI: 10.1039/D0CP00502A
   
   for sTDA-xTB:
   * S. Grimme and C. Bannwarth, J. Chem. Phys., 2016, 145, 054103.
     DOI: 10.1063/1.4959605
   
   in the mass-spec context:
   * V. Asgeirsson, C. Bauer and S. Grimme, Chem. Sci., 2017, 8, 4879.
     DOI: 10.1039/c7sc00601b
   * J. Koopman and S. Grimme, ACS Omega 2019, 4, 12, 15120-15133.
     DOI: 10.1021/acsomega.9b02011
   
   for metadynamics refer to:
   * S. Grimme, J. Chem. Theory Comput., 2019, 155, 2847-2862
     DOI: 10.1021/acs.jctc.9b00143
   
   for SPH calculations refer to:
   * S. Spicher and S. Grimme, J. Chem. Theory Comput., 2021, 17, 1701-1714
     DOI: 10.1021/acs.jctc.0c01306
   
   with help from (in alphabetical order)
   P. Atkinson, C. Bannwarth, F. Bohle, G. Brandenburg, E. Caldeweyher
   M. Checinski, S. Dohm, S. Ehlert, S. Ehrlich, I. Gerasimov, C. Hölzer
   A. Katbashev, J. Koopman, C. Lavigne, S. Lehtola, F. März, M. Müller,
   F. Musil, H. Neugebauer, J. Pisarek, C. Plett, P. Pracht, F. Pultar,
   J. Seibert, P. Shushkov, S. Spicher, M. Stahn, M. Steiner, T. Strunk,
   J. Stückrath, T. Rose, and J. Unsleber
   
 * started run on 2026/04/17 at 12:14:00.936     

           -------------------------------------------------
          |                Calculation Setup                |
           -------------------------------------------------

          program call               : /usr/bin/xtb random_d1.50_003_m1_XTB.xyz --grad -c 0 -u 0 -P 1 --namespace random_d1.50_003_m1 --input random_d1.50_003_m1_XTB.input.tmp --acc 0.200000
          calculation namespace      : random_d1.50_003_m1
          coordinate file            : random_d1.50_003_m1_XTB.xyz
          omp threads                :                     1

   ID    Z sym.   atoms
    1    5 B      1-12

           -------------------------------------------------
          |                 G F N 2 - x T B                 |
           -------------------------------------------------

        Reference                      10.1021/acs.jctc.8b01176
      * Hamiltonian:
        H0-scaling (s, p, d)           1.850000    2.230000    2.230000
        zeta-weighting                 0.500000
      * Dispersion:
        s8                             2.700000
        a1                             0.520000
        a2                             5.000000
        s9                             5.000000
      * Repulsion:
        kExp                           1.500000    1.000000
        rExp                           1.000000
      * Coulomb:
        alpha                          2.000000
        third order                    shell-resolved
        anisotropic                    true
        a3                             3.000000
        a5                             4.000000
        cn-shift                       1.200000
        cn-exp                         4.000000
        max-rad                        5.000000


          ...................................................
          :                      SETUP                      :
          :.................................................:
          :  # basis functions                  48          :
          :  # atomic orbitals                  48          :
          :  # shells                           24          :
          :  # electrons                        36          :
          :  max. iterations                   250          :
          :  Hamiltonian                  GFN2-xTB          :
          :  restarted?                      false          :
          :  GBSA solvation                  false          :
          :  PC potential                    false          :
          :  electronic temp.          300.0000000     K    :
          :  accuracy                    0.2000000          :
          :  -> integral cutoff          0.3198970E+02      :
          :  -> integral neglect         0.2000000E-08      :
          :  -> SCF convergence          0.2000000E-06 Eh   :
          :  -> wf. convergence          0.2000000E-04 e    :
          :  Broyden damping             0.4000000          :
          ...................................................

 iter      E             dE          RMSdq      gap      omega  full diag
   1    -13.6100028 -0.136100E+02  0.192E+01    0.24       0.0  T
   2     -8.8550318  0.475497E+01  0.182E+01    0.11       1.0  T
   3     -3.2655450  0.558949E+01  0.213E+01    0.27       1.0  T
   4    -10.4437722 -0.717823E+01  0.120E+01    0.45       1.0  T
   5     -1.5228302  0.892094E+01  0.173E+01    0.75       1.0  T
   6    -10.7237352 -0.920091E+01  0.103E+01    0.35       1.0  T
   7    -12.6948025 -0.197107E+01  0.773E+00    0.22       1.0  T
   8    -13.6099168 -0.915114E+00  0.649E+00    0.15       1.0  T
   9    -13.7926661 -0.182749E+00  0.589E+00    0.31       1.0  T
  10    -13.9371166 -0.144450E+00  0.499E+00    0.24       1.0  T
  11    -13.9399371 -0.282053E-02  0.479E+00    0.23       1.0  T
  12    -13.9398181  0.119047E-03  0.478E+00    0.23       1.0  T
  13    -13.7575646  0.182253E+00  0.477E+00    0.18       1.0  T
  14    -13.8155888 -0.580241E-01  0.409E+00    0.16       1.0  T
  15    -13.9129736 -0.973848E-01  0.229E+00    0.15       1.0  T
  16    -13.9491119 -0.361383E-01  0.158E+00    0.16       1.0  T
  17    -13.9593996 -0.102877E-01  0.129E+00    0.17       1.0  T
  18    -13.9718839 -0.124843E-01  0.110E+00    0.17       1.0  T
  19    -13.9624860  0.939793E-02  0.165E+00    0.15       1.0  T
  20    -13.9533269  0.915910E-02  0.196E+00    0.14       1.0  T
  21    -13.9728415 -0.195146E-01  0.120E+00    0.15       1.0  T
  22    -13.9771344 -0.429284E-02  0.713E-01    0.17       1.0  T
  23    -13.9782378 -0.110347E-02  0.656E-01    0.17       1.0  T
  24    -13.9786546 -0.416738E-03  0.609E-01    0.17       1.0  T
  25    -13.9825496 -0.389503E-02  0.122E-01    0.15       1.0  T
  26    -13.9824122  0.137347E-03  0.172E-01    0.16       1.0  T
  27    -13.9821882  0.223996E-03  0.237E-01    0.16       1.0  T
  28    -13.9825740 -0.385746E-03  0.728E-02    0.15       1.0  T
  29    -13.9825968 -0.228364E-04  0.552E-02    0.15       1.0  T
  30    -13.9826124 -0.155623E-04  0.282E-02    0.15       1.0  T
  31    -13.9826101  0.226819E-05  0.289E-02    0.15       1.0  T
  32    -13.9826127 -0.256301E-05  0.265E-02    0.15       1.1  T
  33    -13.9826192 -0.654056E-05  0.524E-03    0.15       5.5  T
  34    -13.9826192  0.249636E-07  0.562E-03    0.15       5.1  T
  35    -13.9826194 -0.172000E-06  0.294E-03    0.15       9.8  T
  36    -13.9826194 -0.359901E-07  0.177E-03    0.15      16.3  T
  37    -13.9826194 -0.120813E-07  0.757E-04    0.15      38.1  T
  38    -13.9826194 -0.491719E-08  0.206E-04    0.15     140.0  T
  39    -13.9826194 -0.243498E-09  0.120E-04    0.15     240.4  T
  40    -13.9826194 -0.359410E-10  0.860E-05    0.15     335.7  T

   *** convergence criteria satisfied after 40 iterations ***

         #    Occupation            Energy/Eh            Energy/eV
      -------------------------------------------------------------
         1        2.0000           -0.4414846             -12.0134
       ...           ...                  ...                  ...
        12        2.0000           -0.2952456              -8.0340
        13        2.0000           -0.2798458              -7.6150
        14        2.0000           -0.2709800              -7.3737
        15        2.0000           -0.2542736              -6.9191
        16        2.0000           -0.2389242              -6.5015
        17        2.0000           -0.2255534              -6.1376
        18        1.9016           -0.2168201              -5.9000 (HOMO)
        19        0.0983           -0.2111922              -5.7468 (LUMO)
        20        0.0001           -0.2048800              -5.5751
        21                         -0.1968019              -5.3553
        22                         -0.1866075              -5.0778
        23                         -0.1749645              -4.7610
       ...                                ...                  ...
        48                          3.7884024             103.0877
      -------------------------------------------------------------
                  HL-Gap            0.0056279 Eh            0.1531 eV
             Fermi-level           -0.2140068 Eh           -5.8234 eV

 SCC (total)                   0 d,  0 h,  0 min,  0.057 sec
 SCC setup                      ...        0 min,  0.000 sec (  0.291%)
 Dispersion                     ...        0 min,  0.000 sec (  0.212%)
 classical contributions        ...        0 min,  0.000 sec (  0.084%)
 integral evaluation            ...        0 min,  0.003 sec (  4.778%)
 iterations                     ...        0 min,  0.046 sec ( 80.076%)
 molecular gradient             ...        0 min,  0.008 sec ( 14.002%)
 printout                       ...        0 min,  0.000 sec (  0.518%)

         :::::::::::::::::::::::::::::::::::::::::::::::::::::
         ::                     SUMMARY                     ::
         :::::::::::::::::::::::::::::::::::::::::::::::::::::
         :: total energy             -13.575067642698 Eh    ::
         :: gradient norm              1.159177407783 Eh/a0 ::
         :: HOMO-LUMO gap              0.153143575706 eV    ::
         ::.................................................::
         :: SCC energy               -13.982619428814 Eh    ::
         :: -> isotropic ES            0.066215009574 Eh    ::
         :: -> anisotropic ES         -0.000443282024 Eh    ::
         :: -> anisotropic XC         -0.023958793199 Eh    ::
         :: -> dispersion             -0.016381997332 Eh    ::
         :: repulsion energy           0.407536285345 Eh    ::
         :: add. restraining           0.000000000000 Eh    ::
         :: total charge              -0.000000000021 e     ::
         :::::::::::::::::::::::::::::::::::::::::::::::::::::


Property printout bound to 'properties.out'

           -------------------------------------------------
          | TOTAL ENERGY              -13.575067642698 Eh   |
          | GRADIENT NORM               1.159177407783 Eh/α |
          | HOMO-LUMO GAP               0.153143575706 eV   |
           -------------------------------------------------

------------------------------------------------------------------------
 * finished run on 2026/04/17 at 12:14:01.009     
------------------------------------------------------------------------
 total:
 * wall-time:     0 d,  0 h,  0 min,  0.072 sec
 *  cpu-time:     0 d,  0 h,  0 min,  0.067 sec
 * ratio c/w:     0.933 speedup
 SCF:
 * wall-time:     0 d,  0 h,  0 min,  0.057 sec
 *  cpu-time:     0 d,  0 h,  0 min,  0.053 sec
 * ratio c/w:     0.917 speedup


-------------------------   --------------------
FINAL SINGLE POINT ENERGY       -13.575067642700
-------------------------   --------------------


-------------
DIPOLE MOMENT
-------------
                                X             Y             Z
Total Dipole Moment    :      0.59200       0.07300      -0.22100
                        -----------------------------------------
Magnitude (a.u.)       :      0.63611
Magnitude (Debye)      :      1.61686


------------------
CARTESIAN GRADIENT
------------------

   1   B   :   -0.042008954    0.003919946    0.053307796
   2   B   :    0.235454793   -0.782598363    0.010884504
   3   B   :   -0.058121318    0.014505108    0.029766259
   4   B   :   -0.226731189    0.741352912    0.006633638
   5   B   :    0.006697120    0.004461757   -0.090499439
   6   B   :    0.001472082   -0.032966224   -0.038228903
   7   B   :   -0.030147114   -0.025291588   -0.012214229
   8   B   :    0.049828110    0.023399950   -0.041197943
   9   B   :    0.037258339   -0.021612513    0.016776106
  10   B   :    0.051380794    0.008500222    0.090497211
  11   B   :    0.052846509    0.024834503   -0.121762917
  12   B   :   -0.077929173    0.041494290    0.096037918

Difference to translation invariance:
           :    0.0000000000    0.0000000000    0.0000000000

Difference to rotation invariance:
           :   -0.0000000030    0.0000000331    0.0000000094

Norm of the Cartesian gradient     ...    1.1591774078
RMS gradient                       ...    0.1931962346
MAX gradient                       ...    0.7825983635
------------------------------------------------------------------------------
                         ORCA GEOMETRY RELAXATION STEP
------------------------------------------------------------------------------

Reading the OPT-File                    .... done
Getting information on internals        .... done
Copying old internal coords+grads       .... done
Making the new internal coordinates     .... (2022 redundants) done
Validating the new internal coordinates .... (2022 redundants) done
Calculating the B-matrix                .... done
Calculating the G,G- and P matrices     .... done
Transforming gradient to internals      .... done
Projecting the internal gradient        .... done
Number of atoms                         ....  12
Number of internal coordinates          .... 100
Current Energy                          ....   -13.575067643 Eh
Current gradient norm                   ....     1.159177408 Eh/bohr
Maximum allowed component of the step   ....  0.300
Current trust radius                    ....  0.300
Evaluating the initial hessian          ....  (Almloef) done
Projecting the Hessian                  .... done
Forming the augmented Hessian           .... done
Diagonalizing the augmented Hessian     .... done
Last element of RFO vector              ....  0.873539470
Lowest eigenvalues of augmented Hessian:
 -0.335812910  0.012938252  0.013373585  0.014773830  0.032439211
Length of the computed step             ....  0.557219607
Warning: the length of the step is outside the trust region - taking restricted step instead
The input lambda is                     ....     0.011911
   iter:   5  x=   -0.003427  g=  974.679656 f(x)=     8.072738
   iter:  10  x=   -0.546254  g=    1.032529 f(x)=     0.251742
   iter:  15  x=   -1.170489  g=    0.086262 f(x)=     0.000002
The output lambda is                    ....    -1.170489 (17 iterations)
The final length of the internal step   ....  0.300000000
Converting the step to Cartesian space:
 Initial RMS(Int)=    0.0300000000
Transforming coordinates:
 Iter   0:  RMS(Cart)=    0.0594942452 RMS(Int)=    0.0298953202
 Iter   5:  RMS(Cart)=    0.0000000192 RMS(Int)=    0.0000000168
done
Storing new coordinates                 .... done

                                .--------------------.
          ----------------------|Geometry convergence|-------------------------
          Item                value                   Tolerance       Converged
          ---------------------------------------------------------------------
          RMS gradient        0.0690984913            0.0000300000      NO
          MAX gradient        0.5475975645            0.0001000000      NO
          RMS step            0.0300000000            0.0006000000      NO
          MAX step            0.2156859996            0.0010000000      NO
          -------------------------------------------------------------------------
          ........................................................
          Max(Bonds)      0.1141      Max(Angles)    3.77
          Max(Dihed)        2.73      Max(Improp)    0.00
          ---------------------------------------------------------------------

The optimization has not yet converged - more geometry cycles are needed


    ---------------------------------------------------------------------------
                         Redundant Internal Coordinates
                            (Angstroem and degrees)

        Definition                    Value    dE/dq     Step     New-Value
    ----------------------------------------------------------------------------
     1. B(B   2,B   1)                1.5903 -0.038795  0.0097    1.6000   
     2. B(B   3,B   1)                1.1752 -0.547598  0.1141    1.2893   
     3. B(B   3,B   2)                1.7107 -0.124018  0.0240    1.7346   
     4. B(B   5,B   0)                2.0670  0.057015 -0.0243    2.0427   
     5. B(B   8,B   5)                1.4562 -0.025190  0.0078    1.4640   
     6. B(B   9,B   4)                1.4585 -0.060005  0.0174    1.4759   
     7. B(B   9,B   2)                1.9225  0.059527 -0.0227    1.8998   
     8. B(B   9,B   8)                1.7836  0.019148 -0.0079    1.7758   
     9. B(B   9,B   7)                1.7693  0.030036 -0.0141    1.7552   
    10. B(B   9,B   5)                2.0150  0.032539 -0.0138    2.0012   
    11. B(B  10,B   6)                1.9580  0.005571 -0.0044    1.9536   
    12. B(B  10,B   2)                1.7742 -0.012687  0.0011    1.7753   
    13. B(B  10,B   1)                1.7717  0.066337 -0.0198    1.7519   
    14. B(B  11,B   7)                1.7698  0.042191 -0.0183    1.7514   
    15. B(B  11,B   6)                1.8015  0.025991 -0.0086    1.7929   
    16. B(B  11,B  10)                1.4130 -0.084731  0.0239    1.4369   
    17. A(B   2,B   1,B  10)           63.43 -0.012999    0.35     63.78   
    18. A(B   2,B   1,B   3)           74.74  0.073927   -1.84     72.90   
    19. A(B   3,B   1,B  10)          130.30  0.049568   -1.18    129.13   
    20. A(B   9,B   2,B  10)          128.17 -0.031836    0.84    129.01   
    21. A(B   3,B   2,B  10)          100.82 -0.119709    2.52    103.34   
    22. A(B   1,B   2,B   3)           41.51 -0.166433    3.77     45.28   
    23. A(B   1,B   2,B  10)           63.27  0.033957   -1.00     62.27   
    24. A(B   3,B   2,B   9)          130.91  0.154768   -3.43    127.47   
    25. A(B   1,B   2,B   9)          163.06  0.000113    0.16    163.22   
    26. A(B   1,B   3,B   2)           63.75  0.092506   -1.93     61.82   
    27. A(B   0,B   5,B   8)           88.59  0.031109   -1.22     87.36   
    28. A(B   8,B   5,B   9)           59.26  0.000744    0.00     59.27   
    29. A(B   0,B   5,B   9)           79.04  0.068731   -2.97     76.06   
    30. A(B  10,B   6,B  11)           43.91 -0.028892    0.94     44.84   
    31. A(B   9,B   7,B  11)          120.14 -0.009044    0.27    120.41   
    32. A(B   5,B   8,B   9)           76.17  0.013433   -0.56     75.61   
    33. A(B   2,B   9,B   4)           94.94  0.018293   -0.80     94.14   
    34. A(B   5,B   9,B   7)          163.17  0.017368   -0.49    162.68   
    35. A(B   4,B   9,B   7)          111.14 -0.040015    1.40    112.55   
    36. A(B   2,B   9,B   7)           74.53  0.002552    0.07     74.60   
    37. A(B   4,B   9,B   5)           82.33  0.030909   -1.24     81.09   
    38. A(B   2,B   9,B   5)           94.85  0.008908   -0.44     94.41   
    39. A(B   7,B   9,B   8)          118.79  0.031339   -1.03    117.76   
    40. A(B   5,B   9,B   8)           44.57 -0.014176    0.56     45.12   
    41. A(B   4,B   9,B   8)          121.97  0.024410   -1.02    120.94   
    42. A(B   2,B   9,B   8)           72.90  0.014308   -0.65     72.25   
    43. A(B   1,B  10,B  11)          128.85  0.009857   -0.38    128.47   
    44. A(B   2,B  10,B   6)           75.43  0.019112   -0.65     74.79   
    45. A(B   1,B  10,B   6)           78.01 -0.007839    0.09     78.10   
    46. A(B   1,B  10,B   2)           53.29 -0.020958    0.65     53.95   
    47. A(B   6,B  10,B  11)           62.15  0.017698   -0.51     61.64   
    48. A(B   2,B  10,B  11)           85.02  0.036265   -1.14     83.88   
    49. A(B   6,B  11,B   7)          115.10  0.010489   -0.33    114.77   
    50. A(B   7,B  11,B  10)          114.59 -0.002394    0.10    114.70   
    51. A(B   6,B  11,B  10)           73.94  0.011195   -0.43     73.51   
    52. D(B   9,B   2,B   1,B   3)    -71.43  0.000879    0.06    -71.37   
    53. D(B   9,B   2,B   1,B  10)    136.18  0.004596   -0.10    136.08   
    54. D(B  10,B   2,B   1,B   3)    152.38 -0.003717    0.16    152.54   
    55. D(B   3,B   2,B   1,B  10)   -152.38  0.003717   -0.16   -152.54   
    56. D(B   1,B   3,B   2,B   9)    158.56 -0.052396    1.39    159.95   
    57. D(B   1,B   3,B   2,B  10)    -24.93 -0.000615    0.15    -24.78   
    58. D(B   2,B   3,B   1,B  10)     32.93  0.027627   -0.74     32.20   
    59. D(B   9,B   8,B   5,B   0)     78.07  0.061592   -2.73     75.34   
    60. D(B   4,B   9,B   2,B   3)   -103.51  0.028440   -0.20   -103.70   
    61. D(B   8,B   9,B   7,B  11)     61.93  0.011173   -0.42     61.51   
    62. D(B   5,B   9,B   2,B   1)     35.42 -0.019534    0.36     35.78   
    63. D(B   5,B   9,B   2,B   3)    -20.81  0.061592   -1.54    -22.35   
    64. D(B   7,B   9,B   8,B   5)   -176.84 -0.002457    0.10   -176.73   
    65. D(B   7,B   9,B   2,B   1)   -157.87 -0.006323    0.03   -157.84   
    66. D(B   5,B   9,B   7,B  11)     54.24  0.011367   -0.54     53.71   
    67. D(B   2,B   9,B   7,B  11)      1.94  0.010410   -0.28      1.66   
    68. D(B   7,B   9,B   5,B   8)      9.62 -0.000723    0.14      9.76   
    69. D(B   7,B   9,B   5,B   0)    -85.32  0.004638   -0.22    -85.54   
    70. D(B   4,B   9,B   5,B   8)    153.90  0.021575   -0.96    152.94   
    71. D(B   4,B   9,B   5,B   0)     58.97  0.026936   -1.33     57.64   
    72. D(B   4,B   9,B   2,B  10)     80.86 -0.036486    1.36     82.22   
    73. D(B   4,B   9,B   7,B  11)    -87.42 -0.022106    0.97    -86.44   
    74. D(B   4,B   9,B   2,B   1)    -47.27 -0.052687    1.70    -45.58   
    75. D(B   2,B   9,B   5,B   8)     59.55  0.001896   -0.11     59.44   
    76. D(B   2,B   9,B   8,B   5)   -116.01 -0.008288    0.35   -115.65   
    77. D(B   4,B   9,B   8,B   5)    -30.93  0.014764   -0.69    -31.62   
    78. D(B   2,B   9,B   5,B   0)    -35.38  0.007257   -0.48    -35.86   
    79. D(B   5,B   9,B   2,B  10)    163.56 -0.003334    0.02    163.58   
    80. D(B   6,B  10,B   1,B   3)     44.75 -0.018692    0.38     45.13   
    81. D(B   6,B  10,B   1,B   2)     80.66  0.031493   -0.93     79.72   
    82. D(B   2,B  10,B   1,B   3)    -35.91 -0.050185    1.31    -34.60   
    83. D(B   2,B  10,B   6,B  11)    -92.06 -0.027024    0.84    -91.22   
    84. D(B   1,B  10,B   6,B  11)   -146.88 -0.005164    0.13   -146.75   
    85. D(B   6,B  10,B   2,B   9)    109.11  0.011513   -0.39    108.73   
    86. D(B   6,B  10,B   2,B   3)    -67.53 -0.047597    1.01    -66.51   
    87. D(B   6,B  10,B   2,B   1)    -85.76  0.019528   -0.45    -86.20   
    88. D(B   1,B  10,B   2,B   9)   -165.13 -0.008015    0.06   -165.07   
    89. D(B  11,B  10,B   2,B   1)   -148.25  0.009500   -0.18   -148.43   
    90. D(B   1,B  10,B   2,B   3)     18.23 -0.067125    1.46     19.69   
    91. D(B  11,B  10,B   1,B   3)      6.41 -0.026107    0.68      7.09   
    92. D(B  11,B  10,B   1,B   2)     42.31  0.024078   -0.63     41.68   
    93. D(B   7,B  11,B  10,B   6)   -110.72 -0.016204    0.54   -110.18   
    94. D(B   7,B  11,B  10,B   2)    -34.57 -0.012811    0.38    -34.19   
    95. D(B   7,B  11,B  10,B   1)    -67.37 -0.017752    0.45    -66.92   
    96. D(B   6,B  11,B  10,B   2)     76.14  0.003392   -0.16     75.99   
    97. D(B   6,B  11,B  10,B   1)     43.34 -0.001548   -0.09     43.25   
    98. D(B  10,B  11,B   7,B   9)     28.03 -0.004629    0.10     28.13   
    99. D(B   6,B  11,B   7,B   9)    -55.00 -0.021031    0.69    -54.30   
   100. D(B   7,B  11,B   6,B  10)    110.09  0.000325   -0.01    110.08   
    ----------------------------------------------------------------------------

Geometry step timings:
Preparation and reading OPT file:      0.000 s ( 0.988 %)
Internal coordinates            :      0.000 s ( 0.886 %)
B/P matrices and projection     :      0.001 s (17.925 %)
Hessian update/contruction      :      0.002 s (27.160 %)
Making the step                 :      0.002 s (34.606 %)
Converting the step to Cartesian:      0.000 s ( 3.254 %)
Storing new data                :      0.000 s ( 1.073 %)
Checking convergence            :      0.000 s ( 0.801 %)
Final printing                  :      0.001 s (13.290 %)
Total time                      :      0.006 s

Time for energy+gradient        :      0.085 s
Time for complete geometry iter :      0.092 s

         *************************************************************
         *                GEOMETRY OPTIMIZATION CYCLE   2            *
         *************************************************************
---------------------------------
CARTESIAN COORDINATES (ANGSTROEM)
---------------------------------
  B     0.620636   -0.272806    1.876420
  B    -1.641646    0.192398    0.970119
  B    -0.303444    0.114033    0.096662
  B    -1.284749   -1.046261    0.933015
  B     2.034237    0.768442    0.643679
  B     1.915789   -1.509976    0.894328
  B    -2.070756   -0.066457   -1.315046
  B     0.739998    0.857248   -1.714387
  B     0.866482   -1.700815   -0.108673
  B     1.507665   -0.079121   -0.443842
  B    -1.435720    1.438635   -0.243570
  B    -0.948492    1.304681   -1.588705

----------------------------
CARTESIAN COORDINATES (A.U.)
----------------------------
  NO LB    ZA    FRAG    MASS        X           Y           Z
   0 B   5.0000    0    10.810    1.172832   -0.515529    3.545919
   1 B   5.0000    0    10.810   -3.102261    0.363579    1.833259
   2 B   5.0000    0    10.810   -0.573426    0.215490    0.182665
   3 B   5.0000    0    10.810   -2.427824   -1.977147    1.763142
   4 B   5.0000    0    10.810    3.844151    1.452145    1.216378
   5 B   5.0000    0    10.810    3.620316   -2.853442    1.690035
   6 B   5.0000    0    10.810   -3.913163   -0.125586   -2.485077
   7 B   5.0000    0    10.810    1.398394    1.619964   -3.239722
   8 B   5.0000    0    10.810    1.637414   -3.214074   -0.205362
   9 B   5.0000    0    10.810    2.849074   -0.149517   -0.838740
  10 B   5.0000    0    10.810   -2.713117    2.718627   -0.460280
  11 B   5.0000    0    10.810   -1.792390    2.465490   -3.002218

      -----------------------------------------------------------      
     |                   =====================                   |     
     |                           x T B                           |     
     |                   =====================                   |     
     |                         S. Grimme                         |     
     |          Mulliken Center for Theoretical Chemistry        |     
     |                    University of Bonn                     |     
      -----------------------------------------------------------      

   * xtb version 6.6.1 (unknown) compiled by 'builduser@buildhost' on 2023-08-07

   xtb is free software: you can redistribute it and/or modify it under
   the terms of the GNU Lesser General Public License as published by
   the Free Software Foundation, either version 3 of the License, or
   (at your option) any later version.
   
   xtb is distributed in the hope that it will be useful,
   but WITHOUT ANY WARRANTY; without even the implied warranty of
   MERCHANTABILITY or FITNESS FOR A PARTICULAR PURPOSE.  See the
   GNU Lesser General Public License for more details.
   
   Cite this work as:
   * C. Bannwarth, E. Caldeweyher, S. Ehlert, A. Hansen, P. Pracht,
     J. Seibert, S. Spicher, S. Grimme, WIREs Comput. Mol. Sci., 2020, 11,
     e01493. DOI: 10.1002/wcms.1493
   
   for GFN2-xTB:
   * C. Bannwarth, S. Ehlert and S. Grimme., J. Chem. Theory Comput., 2019,
     15, 1652-1671. DOI: 10.1021/acs.jctc.8b01176
   for GFN1-xTB:
   * S. Grimme, C. Bannwarth, P. Shushkov, J. Chem. Theory Comput., 2017,
     13, 1989-2009. DOI: 10.1021/acs.jctc.7b00118
   for GFN0-xTB:
   * P. Pracht, E. Caldeweyher, S. Ehlert, S. Grimme, ChemRxiv, 2019, preprint.
     DOI: 10.26434/chemrxiv.8326202.v1
   for GFN-FF:
   * S. Spicher and S. Grimme, Angew. Chem. Int. Ed., 2020, 59, 15665-15673.
     DOI: 10.1002/anie.202004239
   
   for ALPB and GBSA implicit solvation:
   * S. Ehlert, M. Stahn, S. Spicher, S. Grimme, J. Chem. Theory Comput.,
     2021, 17, 4250-4261. DOI: 10.1021/acs.jctc.1c00471
   
   for DFT-D4:
   * E. Caldeweyher, C. Bannwarth and S. Grimme, J. Chem. Phys., 2017,
     147, 034112. DOI: 10.1063/1.4993215
   * E. Caldeweyher, S. Ehlert, A. Hansen, H. Neugebauer, S. Spicher,
     C. Bannwarth and S. Grimme, J. Chem. Phys., 2019, 150, 154122.
     DOI: 10.1063/1.5090222
   * E. Caldeweyher, J.-M. Mewes, S. Ehlert and S. Grimme, Phys. Chem. Chem. Phys.
     2020, 22, 8499-8512. DOI: 10.1039/D0CP00502A
   
   for sTDA-xTB:
   * S. Grimme and C. Bannwarth, J. Chem. Phys., 2016, 145, 054103.
     DOI: 10.1063/1.4959605
   
   in the mass-spec context:
   * V. Asgeirsson, C. Bauer and S. Grimme, Chem. Sci., 2017, 8, 4879.
     DOI: 10.1039/c7sc00601b
   * J. Koopman and S. Grimme, ACS Omega 2019, 4, 12, 15120-15133.
     DOI: 10.1021/acsomega.9b02011
   
   for metadynamics refer to:
   * S. Grimme, J. Chem. Theory Comput., 2019, 155, 2847-2862
     DOI: 10.1021/acs.jctc.9b00143
   
   for SPH calculations refer to:
   * S. Spicher and S. Grimme, J. Chem. Theory Comput., 2021, 17, 1701-1714
     DOI: 10.1021/acs.jctc.0c01306
   
   with help from (in alphabetical order)
   P. Atkinson, C. Bannwarth, F. Bohle, G. Brandenburg, E. Caldeweyher
   M. Checinski, S. Dohm, S. Ehlert, S. Ehrlich, I. Gerasimov, C. Hölzer
   A. Katbashev, J. Koopman, C. Lavigne, S. Lehtola, F. März, M. Müller,
   F. Musil, H. Neugebauer, J. Pisarek, C. Plett, P. Pracht, F. Pultar,
   J. Seibert, P. Shushkov, S. Spicher, M. Stahn, M. Steiner, T. Strunk,
   J. Stückrath, T. Rose, and J. Unsleber
   
 * started run on 2026/04/17 at 12:14:01.027     

           -------------------------------------------------
          |                Calculation Setup                |
           -------------------------------------------------

          program call               : /usr/bin/xtb random_d1.50_003_m1_XTB.xyz --grad -c 0 -u 0 -P 1 --namespace random_d1.50_003_m1 --input random_d1.50_003_m1_XTB.input.tmp --acc 0.200000
          calculation namespace      : random_d1.50_003_m1
          coordinate file            : random_d1.50_003_m1_XTB.xyz
          omp threads                :                     1

   ID    Z sym.   atoms
    1    5 B      1-12

           -------------------------------------------------
          |                 G F N 2 - x T B                 |
           -------------------------------------------------

        Reference                      10.1021/acs.jctc.8b01176
      * Hamiltonian:
        H0-scaling (s, p, d)           1.850000    2.230000    2.230000
        zeta-weighting                 0.500000
      * Dispersion:
        s8                             2.700000
        a1                             0.520000
        a2                             5.000000
        s9                             5.000000
      * Repulsion:
        kExp                           1.500000    1.000000
        rExp                           1.000000
      * Coulomb:
        alpha                          2.000000
        third order                    shell-resolved
        anisotropic                    true
        a3                             3.000000
        a5                             4.000000
        cn-shift                       1.200000
        cn-exp                         4.000000
        max-rad                        5.000000

q/qsh data taken from xtbrestart
CAMM data taken from xtbrestart

          ...................................................
          :                      SETUP                      :
          :.................................................:
          :  # basis functions                  48          :
          :  # atomic orbitals                  48          :
          :  # shells                           24          :
          :  # electrons                        36          :
          :  max. iterations                   250          :
          :  Hamiltonian                  GFN2-xTB          :
          :  restarted?                       true          :
          :  GBSA solvation                  false          :
          :  PC potential                    false          :
          :  electronic temp.          300.0000000     K    :
          :  accuracy                    0.2000000          :
          :  -> integral cutoff          0.3198970E+02      :
          :  -> integral neglect         0.2000000E-08      :
          :  -> SCF convergence          0.2000000E-06 Eh   :
          :  -> wf. convergence          0.2000000E-04 e    :
          :  Broyden damping             0.4000000          :
          ...................................................

 iter      E             dE          RMSdq      gap      omega  full diag
   1    -13.9252602 -0.139253E+02  0.300E+00    0.15       0.0  T
   2    -12.8281765  0.109708E+01  0.749E+00    0.17       1.0  T
   3    -13.4875943 -0.659418E+00  0.534E+00    0.28       1.0  T
   4    -13.6291068 -0.141513E+00  0.492E+00    0.17       1.0  T
   5    -13.8455710 -0.216464E+00  0.322E+00    0.19       1.0  T
   6    -13.7526177  0.929534E-01  0.404E+00    0.26       1.0  T
   7    -13.9450237 -0.192406E+00  0.171E+00    0.11       1.0  T
   8    -13.9670037 -0.219800E-01  0.158E+00    0.16       1.0  T
   9    -13.9607211  0.628261E-02  0.161E+00    0.17       1.0  T
  10    -13.9750637 -0.143426E-01  0.138E+00    0.16       1.0  T
  11    -13.9714942  0.356948E-02  0.147E+00    0.16       1.0  T
  12    -13.9740580 -0.256382E-02  0.128E+00    0.16       1.0  T
  13    -13.9755395 -0.148142E-02  0.107E+00    0.15       1.0  T
  14    -13.9800290 -0.448958E-02  0.713E-01    0.15       1.0  T
  15    -13.9817187 -0.168965E-02  0.572E-01    0.15       1.0  T
  16    -13.9822409 -0.522247E-03  0.522E-01    0.15       1.0  T
  17    -13.9833758 -0.113487E-02  0.415E-01    0.15       1.0  T
  18    -13.9845446 -0.116883E-02  0.293E-01    0.15       1.0  T
  19    -13.9847760 -0.231379E-03  0.245E-01    0.15       1.0  T
  20    -13.9848984 -0.122357E-03  0.197E-01    0.15       1.0  T
  21    -13.9850984 -0.200026E-03  0.931E-02    0.15       1.0  T
  22    -13.9851168 -0.184185E-04  0.802E-02    0.15       1.0  T
  23    -13.9851438 -0.269674E-04  0.526E-02    0.15       1.0  T
  24    -13.9851538 -0.100204E-04  0.279E-02    0.15       1.0  T
  25    -13.9851484  0.536061E-05  0.419E-02    0.15       1.0  T
  26    -13.9851513 -0.287141E-05  0.339E-02    0.15       1.0  T
  27    -13.9851570 -0.569500E-05  0.677E-03    0.15       4.3  T
  28    -13.9851573 -0.244216E-06  0.208E-03    0.15      13.9  T
  29    -13.9851573 -0.198812E-07  0.148E-03    0.15      19.5  T
  30    -13.9851573 -0.108399E-07  0.857E-04    0.15      33.7  T
  31    -13.9851573 -0.524541E-08  0.102E-04    0.15     282.3  T
  32    -13.9851573 -0.822542E-10  0.772E-05    0.15     373.9  T

   *** convergence criteria satisfied after 32 iterations ***

         #    Occupation            Energy/Eh            Energy/eV
      -------------------------------------------------------------
         1        2.0000           -0.4394071             -11.9569
       ...           ...                  ...                  ...
        12        2.0000           -0.2935416              -7.9877
        13        2.0000           -0.2801434              -7.6231
        14        2.0000           -0.2716665              -7.3924
        15        2.0000           -0.2607722              -7.0960
        16        2.0000           -0.2424252              -6.5967
        17        2.0000           -0.2237796              -6.0894
        18        1.8836           -0.2146332              -5.8405 (HOMO)
        19        0.1004           -0.2091945              -5.6925 (LUMO)
        20        0.0160           -0.2074073              -5.6438
        21                         -0.1948771              -5.3029
        22                         -0.1834037              -4.9907
        23                         -0.1717421              -4.6733
       ...                                ...                  ...
        48                          2.2365354              60.8592
      -------------------------------------------------------------
                  HL-Gap            0.0054388 Eh            0.1480 eV
             Fermi-level           -0.2119880 Eh           -5.7685 eV

 SCC (total)                   0 d,  0 h,  0 min,  0.046 sec
 SCC setup                      ...        0 min,  0.000 sec (  0.408%)
 Dispersion                     ...        0 min,  0.000 sec (  0.263%)
 classical contributions        ...        0 min,  0.000 sec (  0.158%)
 integral evaluation            ...        0 min,  0.004 sec (  7.730%)
 iterations                     ...        0 min,  0.035 sec ( 77.026%)
 molecular gradient             ...        0 min,  0.006 sec ( 13.711%)
 printout                       ...        0 min,  0.000 sec (  0.639%)

         :::::::::::::::::::::::::::::::::::::::::::::::::::::
         ::                     SUMMARY                     ::
         :::::::::::::::::::::::::::::::::::::::::::::::::::::
         :: total energy             -13.723246561718 Eh    ::
         :: gradient norm              0.550854250465 Eh/a0 ::
         :: HOMO-LUMO gap              0.147996595629 eV    ::
         ::.................................................::
         :: SCC energy               -13.985157289558 Eh    ::
         :: -> isotropic ES            0.066113340114 Eh    ::
         :: -> anisotropic ES         -0.000183990920 Eh    ::
         :: -> anisotropic XC         -0.023003336657 Eh    ::
         :: -> dispersion             -0.015496097972 Eh    ::
         :: repulsion energy           0.261897785537 Eh    ::
         :: add. restraining           0.000000000000 Eh    ::
         :: total charge              -0.000000000069 e     ::
         :::::::::::::::::::::::::::::::::::::::::::::::::::::


Property printout bound to 'properties.out'

           -------------------------------------------------
          | TOTAL ENERGY              -13.723246561718 Eh   |
          | GRADIENT NORM               0.550854250465 Eh/α |
          | HOMO-LUMO GAP               0.147996595629 eV   |
           -------------------------------------------------

------------------------------------------------------------------------
 * finished run on 2026/04/17 at 12:14:01.092     
------------------------------------------------------------------------
 total:
 * wall-time:     0 d,  0 h,  0 min,  0.065 sec
 *  cpu-time:     0 d,  0 h,  0 min,  0.064 sec
 * ratio c/w:     0.993 speedup
 SCF:
 * wall-time:     0 d,  0 h,  0 min,  0.046 sec
 *  cpu-time:     0 d,  0 h,  0 min,  0.045 sec
 * ratio c/w:     0.990 speedup


-------------------------   --------------------
FINAL SINGLE POINT ENERGY       -13.723246561720
-------------------------   --------------------


-------------
DIPOLE MOMENT
-------------
                                X             Y             Z
Total Dipole Moment    :      0.54600       0.20800      -0.12900
                        -----------------------------------------
Magnitude (a.u.)       :      0.59835
Magnitude (Debye)      :      1.52088


------------------
CARTESIAN GRADIENT
------------------

   1   B   :   -0.040413607    0.000319957    0.050074058
   2   B   :    0.120997169   -0.347921451    0.016541676
   3   B   :   -0.050159557    0.012191553    0.026300096
   4   B   :   -0.122268368    0.304535849    0.011809296
   5   B   :    0.015723614    0.015970440   -0.084990349
   6   B   :   -0.004930119   -0.030149945   -0.033510028
   7   B   :   -0.030591964   -0.024783970   -0.013291728
   8   B   :    0.049041122    0.021784096   -0.040217197
   9   B   :    0.040424166   -0.021276638    0.009241535
  10   B   :    0.044820797    0.001414048    0.086905581
  11   B   :    0.045230616    0.027771505   -0.100905522
  12   B   :   -0.067873869    0.040144556    0.072042582

Difference to translation invariance:
           :   -0.0000000000   -0.0000000000   -0.0000000000

Difference to rotation invariance:
           :   -0.0000000036    0.0000000495    0.0000000173

Norm of the Cartesian gradient     ...    0.5508542505
RMS gradient                       ...    0.0918090417
MAX gradient                       ...    0.3479214509
------------------------------------------------------------------------------
                         ORCA GEOMETRY RELAXATION STEP
------------------------------------------------------------------------------

Reading the OPT-File                    .... done
Getting information on internals        .... done
Copying old internal coords+grads       .... done
Making the new internal coordinates     .... (2022 redundants) done
Validating the new internal coordinates .... (2022 redundants) done
Calculating the B-matrix                .... done
Calculating the G,G- and P matrices     .... done
Transforming gradient to internals      .... done
Projecting the internal gradient        .... done
Number of atoms                         ....  12
Number of internal coordinates          .... 100
Current Energy                          ....   -13.723246562 Eh
Current gradient norm                   ....     0.550854250 Eh/bohr
Maximum allowed component of the step   ....  0.300
Current trust radius                    ....  0.300
Updating the Hessian (BFGS)             .... done
Forming the augmented Hessian           .... done
Diagonalizing the augmented Hessian     .... done
Last element of RFO vector              ....  0.819188138
Lowest eigenvalues of augmented Hessian:
 -0.194768964  0.012946895  0.013573707  0.014697944  0.034545070
Length of the computed step             ....  0.700113758
Warning: the length of the step is outside the trust region - taking restricted step instead
The input lambda is                     ....     0.011910
   iter:   5  x=   -0.003394  g= 1555.783165 f(x)=    12.929182
   iter:  10  x=   -0.362096  g=    2.333304 f(x)=     0.324585
   iter:  15  x=   -0.678917  g=    0.194197 f(x)=     0.000003
The output lambda is                    ....    -0.678917 (17 iterations)
The final length of the internal step   ....  0.300000000
Converting the step to Cartesian space:
 Initial RMS(Int)=    0.0300000000
Transforming coordinates:
 Iter   0:  RMS(Cart)=    0.0916083341 RMS(Int)=    0.0296466325
 Iter   5:  RMS(Cart)=    0.0000004861 RMS(Int)=    0.0000003242
done
Storing new coordinates                 .... done
The predicted energy change is          ....    -0.078608019
Previously predicted energy change      ....    -0.153770963
Actually observed energy change         ....    -0.148178919
Ratio of predicted to observed change   ....     0.963633939
New trust radius                        ....     0.450000000

                                .--------------------.
          ----------------------|Geometry convergence|-------------------------
          Item                value                   Tolerance       Converged
          ---------------------------------------------------------------------
          Energy change      -0.1481789190            0.0000010000      NO
          RMS gradient        0.0354836892            0.0000300000      NO
          MAX gradient        0.2391432808            0.0001000000      NO
          RMS step            0.0300000000            0.0006000000      NO
          MAX step            0.1216804337            0.0010000000      NO
          -------------------------------------------------------------------------
          ........................................................
          Max(Bonds)      0.0644      Max(Angles)    5.59
          Max(Dihed)        5.17      Max(Improp)    0.00
          ---------------------------------------------------------------------

The optimization has not yet converged - more geometry cycles are needed


    ---------------------------------------------------------------------------
                         Redundant Internal Coordinates
                            (Angstroem and degrees)

        Definition                    Value    dE/dq     Step     New-Value
    ----------------------------------------------------------------------------
     1. B(B   2,B   1)                1.6000 -0.020682  0.0074    1.6073   
     2. B(B   3,B   1)                1.2896 -0.239143  0.0644    1.3540   
     3. B(B   3,B   2)                1.7346 -0.040708  0.0036    1.7382   
     4. B(B   5,B   0)                2.0427  0.049893 -0.0339    2.0088   
     5. B(B   8,B   5)                1.4641 -0.024631  0.0125    1.4766   
     6. B(B   9,B   4)                1.4759 -0.047843  0.0216    1.4975   
     7. B(B   9,B   2)                1.8999  0.057385 -0.0401    1.8598   
     8. B(B   9,B   8)                1.7758  0.015960 -0.0105    1.7653   
     9. B(B   9,B   7)                1.7551  0.036105 -0.0253    1.7298   
    10. B(B   9,B   5)                2.0012  0.032853 -0.0236    1.9775   
    11. B(B  10,B   6)                1.9536  0.010918 -0.0102    1.9434   
    12. B(B  10,B   2)                1.7755  0.001074 -0.0058    1.7697   
    13. B(B  10,B   1)                1.7517  0.050240 -0.0271    1.7246   
    14. B(B  11,B   7)                1.7513  0.046607 -0.0313    1.7200   
    15. B(B  11,B   6)                1.7929  0.022280 -0.0140    1.7789   
    16. B(B  11,B  10)                1.4369 -0.063674  0.0277    1.4646   
    17. A(B   2,B   1,B  10)           63.79 -0.007052    0.28     64.07   
    18. A(B   2,B   1,B   3)           72.89  0.040374   -1.66     71.23   
    19. A(B   3,B   1,B  10)          129.11  0.027068   -1.06    128.05   
    20. A(B   9,B   2,B  10)          129.00 -0.019532    1.03    130.03   
    21. A(B   3,B   2,B  10)          103.34 -0.047537    1.08    104.42   
    22. A(B   1,B   2,B   3)           45.28 -0.074003    2.26     47.54   
    23. A(B   1,B   2,B  10)           62.27  0.021657   -1.08     61.19   
    24. A(B   3,B   2,B   9)          127.48  0.068896   -2.16    125.32   
    25. A(B   1,B   2,B   9)          163.26 -0.002268    0.11    163.37   
    26. A(B   1,B   3,B   2)           61.83  0.033629   -0.61     61.22   
    27. A(B   0,B   5,B   8)           87.36  0.033248   -2.25     85.11   
    28. A(B   8,B   5,B   9)           59.26 -0.000410    0.14     59.40   
    29. A(B   0,B   5,B   9)           76.06  0.073599   -5.59     70.47   
    30. A(B  10,B   6,B  11)           44.85 -0.023143    1.21     46.06   
    31. A(B   9,B   7,B  11)          120.40 -0.004058    0.13    120.53   
    32. A(B   5,B   8,B   9)           75.61  0.014373   -1.03     74.58   
    33. A(B   2,B   9,B   4)           94.13  0.017297   -1.31     92.83   
    34. A(B   5,B   9,B   7)          162.70  0.009587   -0.47    162.23   
    35. A(B   4,B   9,B   7)          112.52 -0.035612    2.34    114.86   
    36. A(B   2,B   9,B   7)           74.62 -0.002620    0.24     74.86   
    37. A(B   4,B   9,B   5)           81.09  0.034007   -2.45     78.64   
    38. A(B   2,B   9,B   5)           94.41  0.010846   -0.78     93.63   
    39. A(B   7,B   9,B   8)          117.77  0.023371   -1.35    116.43   
    40. A(B   5,B   9,B   8)           45.13 -0.013964    0.90     46.02   
    41. A(B   4,B   9,B   8)          120.94  0.028960   -2.26    118.68   
    42. A(B   2,B   9,B   8)           72.24  0.018815   -1.41     70.83   
    43. A(B   1,B  10,B  11)          128.47  0.011207   -0.76    127.71   
    44. A(B   2,B  10,B   6)           74.79  0.016135   -1.04     73.75   
    45. A(B   1,B  10,B   6)           78.09  0.000026   -0.28     77.81   
    46. A(B   1,B  10,B   2)           53.94 -0.014605    0.80     54.74   
    47. A(B   6,B  10,B  11)           61.64  0.012526   -0.61     61.03   
    48. A(B   2,B  10,B  11)           83.89  0.027379   -1.58     82.31   
    49. A(B   6,B  11,B   7)          114.78  0.006927   -0.49    114.29   
    50. A(B   7,B  11,B  10)          114.70 -0.002738    0.21    114.91   
    51. A(B   6,B  11,B  10)           73.51  0.010617   -0.60     72.91   
    52. D(B   9,B   2,B   1,B   3)    -71.38 -0.002493    0.43    -70.95   
    53. D(B   9,B   2,B   1,B  10)    136.08  0.000027    0.24    136.32   
    54. D(B  10,B   2,B   1,B   3)    152.54 -0.002520    0.19    152.73   
    55. D(B   3,B   2,B   1,B  10)   -152.54  0.002520   -0.19   -152.73   
    56. D(B   1,B   3,B   2,B   9)    159.88 -0.022423    0.87    160.74   
    57. D(B   1,B   3,B   2,B  10)    -24.80 -0.002295    0.31    -24.49   
    58. D(B   2,B   3,B   1,B  10)     32.22  0.014739   -0.72     31.51   
    59. D(B   9,B   8,B   5,B   0)     75.34  0.065916   -5.17     70.17   
    60. D(B   4,B   9,B   2,B   3)   -103.65 -0.004332    1.28   -102.37   
    61. D(B   8,B   9,B   7,B  11)     61.50  0.012121   -0.94     60.56   
    62. D(B   5,B   9,B   2,B   1)     35.76  0.000206   -0.58     35.18   
    63. D(B   5,B   9,B   2,B   3)    -22.29  0.031664   -1.34    -23.63   
    64. D(B   7,B   9,B   8,B   5)   -176.74 -0.001612    0.16   -176.58   
    65. D(B   7,B   9,B   2,B   1)   -157.84  0.005705   -0.72   -158.56   
    66. D(B   5,B   9,B   7,B  11)     53.70  0.013680   -1.24     52.47   
    67. D(B   2,B   9,B   7,B  11)      1.66  0.004432   -0.14      1.52   
    68. D(B   7,B   9,B   5,B   8)      9.75 -0.001682    0.34     10.10   
    69. D(B   7,B   9,B   5,B   0)    -85.54  0.003853   -0.39    -85.93   
    70. D(B   4,B   9,B   5,B   8)    152.94  0.025152   -2.07    150.87   
    71. D(B   4,B   9,B   5,B   0)     57.64  0.030687   -2.80     54.85   
    72. D(B   4,B   9,B   2,B  10)     82.21 -0.030047    2.02     84.23   
    73. D(B   4,B   9,B   7,B  11)    -86.44 -0.024131    1.88    -84.56   
    74. D(B   4,B   9,B   2,B   1)    -45.60 -0.035791    2.04    -43.56   
    75. D(B   2,B   9,B   5,B   8)     59.44  0.006956   -0.66     58.77   
    76. D(B   2,B   9,B   8,B   5)   -115.65 -0.005738    0.23   -115.42   
    77. D(B   4,B   9,B   8,B   5)    -31.60  0.016330   -1.47    -33.08   
    78. D(B   2,B   9,B   5,B   0)    -35.86  0.012491   -1.39    -37.25   
    79. D(B   5,B   9,B   2,B  10)    163.57  0.005949   -0.60    162.97   
    80. D(B   6,B  10,B   1,B   3)     45.13 -0.005926    0.07     45.19   
    81. D(B   6,B  10,B   1,B   2)     79.74  0.021188   -1.16     78.57   
    82. D(B   2,B  10,B   1,B   3)    -34.61 -0.027114    1.23    -33.38   
    83. D(B   2,B  10,B   6,B  11)    -91.23 -0.019710    1.11    -90.12   
    84. D(B   1,B  10,B   6,B  11)   -146.76 -0.003422    0.16   -146.60   
    85. D(B   6,B  10,B   2,B   9)    108.71  0.005968   -0.17    108.54   
    86. D(B   6,B  10,B   2,B   3)    -66.51 -0.020326    0.56    -65.95   
    87. D(B   6,B  10,B   2,B   1)    -86.19  0.008177   -0.23    -86.41   
    88. D(B   1,B  10,B   2,B   9)   -165.10 -0.002209    0.05   -165.05   
    89. D(B  11,B  10,B   2,B   1)   -148.41  0.001705    0.04   -148.37   
    90. D(B   1,B  10,B   2,B   3)     19.68 -0.028503    0.78     20.46   
    91. D(B  11,B  10,B   1,B   3)      7.09 -0.014098    0.61      7.70   
    92. D(B  11,B  10,B   1,B   2)     41.70  0.013016   -0.62     41.08   
    93. D(B   7,B  11,B  10,B   6)   -110.18 -0.012141    0.80   -109.38   
    94. D(B   7,B  11,B  10,B   2)    -34.19 -0.007997    0.43    -33.76   
    95. D(B   7,B  11,B  10,B   1)    -66.93 -0.008669    0.39    -66.54   
    96. D(B   6,B  11,B  10,B   2)     75.99  0.004143   -0.37     75.62   
    97. D(B   6,B  11,B  10,B   1)     43.25  0.003471   -0.40     42.84   
    98. D(B  10,B  11,B   7,B   9)     28.11 -0.000177   -0.04     28.07   
    99. D(B   6,B  11,B   7,B   9)    -54.32 -0.014310    0.78    -53.54   
   100. D(B   7,B  11,B   6,B  10)    110.08  0.000013    0.06    110.15   
    ----------------------------------------------------------------------------

Geometry step timings:
Preparation and reading OPT file:      0.000 s ( 1.093 %)
Internal coordinates            :      0.000 s ( 1.015 %)
B/P matrices and projection     :      0.001 s (15.883 %)
Hessian update/contruction      :      0.001 s (16.449 %)
Making the step                 :      0.002 s (42.946 %)
Converting the step to Cartesian:      0.000 s ( 3.551 %)
Storing new data                :      0.000 s ( 1.366 %)
[...]
         :: gradient norm              0.026920957914 Eh/a0 ::
         :: HOMO-LUMO gap              0.922560572505 eV    ::
         ::.................................................::
         :: SCC energy               -14.474828442072 Eh    ::
         :: -> isotropic ES            0.077376293235 Eh    ::
         :: -> anisotropic ES          0.001459870912 Eh    ::
         :: -> anisotropic XC         -0.028397437886 Eh    ::
         :: -> dispersion             -0.010636468639 Eh    ::
         :: repulsion energy           0.231121387491 Eh    ::
         :: add. restraining           0.000000000000 Eh    ::
         :: total charge               0.000000000000 e     ::
         :::::::::::::::::::::::::::::::::::::::::::::::::::::


Property printout bound to 'properties.out'

           -------------------------------------------------
          | TOTAL ENERGY              -14.243702642933 Eh   |
          | GRADIENT NORM               0.026920957914 Eh/α |
          | HOMO-LUMO GAP               0.922560572505 eV   |
           -------------------------------------------------

------------------------------------------------------------------------
 * finished run on 2026/04/17 at 12:14:04.300     
------------------------------------------------------------------------
 total:
 * wall-time:     0 d,  0 h,  0 min,  0.034 sec
 *  cpu-time:     0 d,  0 h,  0 min,  0.034 sec
 * ratio c/w:     0.999 speedup
 SCF:
 * wall-time:     0 d,  0 h,  0 min,  0.022 sec
 *  cpu-time:     0 d,  0 h,  0 min,  0.022 sec
 * ratio c/w:     0.999 speedup


-------------------------   --------------------
FINAL SINGLE POINT ENERGY       -14.243702642930
-------------------------   --------------------


-------------
DIPOLE MOMENT
-------------
                                X             Y             Z
Total Dipole Moment    :     -0.36300       0.38500      -0.60100
                        -----------------------------------------
Magnitude (a.u.)       :      0.80075
Magnitude (Debye)      :      2.03534


------------------
CARTESIAN GRADIENT
------------------

   1   B   :    0.006868877   -0.002422887    0.004049507
   2   B   :   -0.002992728    0.010880044    0.005513548
   3   B   :   -0.005174568   -0.002889402   -0.000538284
   4   B   :    0.004719804   -0.011911816    0.001742987
   5   B   :   -0.003543255    0.002388969    0.002381027
   6   B   :   -0.001486740   -0.001551765   -0.000249851
   7   B   :    0.000067616    0.002181661   -0.009465030
   8   B   :   -0.004324464   -0.003751686    0.001305464
   9   B   :    0.009584679    0.002231948   -0.002111588
  10   B   :   -0.002982444   -0.000291715   -0.002867362
  11   B   :   -0.000509804    0.004210931    0.000286444
  12   B   :   -0.000226972    0.000925717   -0.000046860

Difference to translation invariance:
           :   -0.0000000000    0.0000000000    0.0000000000

Difference to rotation invariance:
           :   -0.0000000638    0.0000001808   -0.0000001138

Norm of the Cartesian gradient     ...    0.0269209579
RMS gradient                       ...    0.0044868263
MAX gradient                       ...    0.0119118159
------------------------------------------------------------------------------
                         ORCA GEOMETRY RELAXATION STEP
------------------------------------------------------------------------------

Reading the OPT-File                    .... done
Getting information on internals        .... done
Copying old internal coords+grads       .... done
Making the new internal coordinates     .... (2022 redundants) done
Validating the new internal coordinates .... (2022 redundants) done
Calculating the B-matrix                .... done
Calculating the G,G- and P matrices     .... done
Transforming gradient to internals      .... done
Projecting the internal gradient        .... done
Number of atoms                         ....  12
Number of internal coordinates          .... 100
Current Energy                          ....   -14.243702643 Eh
Current gradient norm                   ....     0.026920958 Eh/bohr
Maximum allowed component of the step   ....  0.300
Current trust radius                    ....  0.700
Updating the Hessian (BFGS)             .... done
Forming the augmented Hessian           .... done
Diagonalizing the augmented Hessian     .... done
Last element of RFO vector              ....  0.925403997
Lowest eigenvalues of augmented Hessian:
 -0.001831705  0.002021196  0.003912046  0.011787929  0.012058017
Length of the computed step             ....  0.409531529
The final length of the internal step   ....  0.409531529
Converting the step to Cartesian space:
 Initial RMS(Int)=    0.0409531529
Transforming coordinates:
 Iter   0:  RMS(Cart)=    0.0364615421 RMS(Int)=    0.0407229114
 Iter   5:  RMS(Cart)=    0.0000000068 RMS(Int)=    0.0000000051
done
Storing new coordinates                 .... done
The predicted energy change is          ....    -0.001069456
Previously predicted energy change      ....    -0.001129781
Actually observed energy change         ....    -0.001164879
Ratio of predicted to observed change   ....     1.031066731
New trust radius                        ....     0.700000000

                                .--------------------.
          ----------------------|Geometry convergence|-------------------------
          Item                value                   Tolerance       Converged
          ---------------------------------------------------------------------
          Energy change      -0.0011648794            0.0000010000      NO
          RMS gradient        0.0033038280            0.0000300000      NO
          MAX gradient        0.0107345230            0.0001000000      NO
          RMS step            0.0409531529            0.0006000000      NO
          MAX step            0.1870478443            0.0010000000      NO
          -------------------------------------------------------------------------
          ........................................................
          Max(Bonds)      0.0990      Max(Angles)    4.89
          Max(Dihed)        6.41      Max(Improp)    0.00
          ---------------------------------------------------------------------

The optimization has not yet converged - more geometry cycles are needed


    ---------------------------------------------------------------------------
                         Redundant Internal Coordinates
                            (Angstroem and degrees)

        Definition                    Value    dE/dq     Step     New-Value
    ----------------------------------------------------------------------------
     1. B(B   2,B   1)                2.1683 -0.002180  0.0990    2.2673   
     2. B(B   3,B   1)                1.5663  0.008200 -0.0077    1.5586   
     3. B(B   3,B   2)                2.6680  0.004525  0.0261    2.6941   
     4. B(B   5,B   0)                2.5235 -0.004275 -0.0005    2.5230   
     5. B(B   8,B   5)                1.5225 -0.002967 -0.0070    1.5155   
     6. B(B   9,B   4)                1.8210  0.000918 -0.0217    1.7993   
     7. B(B   9,B   2)                2.5947  0.004427 -0.0123    2.5824   
     8. B(B   9,B   8)                1.7323 -0.005005 -0.0181    1.7142   
     9. B(B   9,B   7)                1.5379  0.001849 -0.0023    1.5356   
    10. B(B   9,B   5)                1.7805  0.006670  0.0090    1.7895   
    11. B(B  10,B   6)                1.7532  0.003853 -0.0004    1.7528   
    12. B(B  10,B   2)                1.5567 -0.000603  0.0116    1.5684   
    13. B(B  10,B   1)                1.5510  0.001449  0.0049    1.5558   
    14. B(B  11,B   7)                1.5288  0.000045 -0.0052    1.5236   
    15. B(B  11,B   6)                1.5646 -0.002306  0.0025    1.5671   
    16. B(B  11,B  10)                1.7987 -0.000763  0.0285    1.8273   
    17. A(B   2,B   1,B  10)           45.87  0.000301   -2.26     43.60   
    18. A(B   2,B   1,B   3)           89.69  0.000629   -2.10     87.60   
    19. A(B   3,B   1,B  10)          117.14  0.001900   -1.51    115.63   
    20. A(B   9,B   2,B  10)          126.44  0.003906   -0.82    125.62   
    21. A(B   3,B   2,B  10)           72.72  0.002691   -2.11     70.62   
    22. A(B   1,B   2,B   3)           35.95  0.001361   -0.72     35.23   
    23. A(B   1,B   2,B  10)           45.65  0.001014   -2.62     43.02   
    24. A(B   3,B   2,B   9)           65.27  0.003086   -0.12     65.15   
    25. A(B   1,B   2,B   9)          101.21  0.004464   -1.56     99.65   
    26. A(B   1,B   3,B   2)           54.36 -0.001989    2.81     57.17   
    27. A(B   0,B   5,B   8)           75.44  0.007044   -1.08     74.36   
    28. A(B   8,B   5,B   9)           62.69 -0.003030   -0.84     61.85   
    29. A(B   0,B   5,B   9)           48.52  0.010735   -0.94     47.58   
    30. A(B  10,B   6,B  11)           65.37 -0.000783    1.08     66.45   
    31. A(B   9,B   7,B  11)          134.16  0.007369    0.05    134.21   
    32. A(B   5,B   8,B   9)           65.96  0.004364    1.00     66.96   
    33. A(B   2,B   9,B   4)           84.45  0.000648    0.75     85.19   
    34. A(B   5,B   9,B   7)          162.51  0.001487   -0.30    162.20   
    35. A(B   4,B   9,B   7)          130.70 -0.002763    0.37    131.07   
    36. A(B   2,B   9,B   7)           56.09 -0.004470   -0.44     55.65   
    37. A(B   4,B   9,B   5)           49.86  0.002124    0.28     50.15   
    38. A(B   2,B   9,B   5)          110.16  0.005837    0.58    110.74   
    39. A(B   7,B   9,B   8)          113.00  0.002893   -0.03    112.96   
    40. A(B   5,B   9,B   8)           51.35 -0.001334   -0.16     51.19   
    41. A(B   4,B   9,B   8)           88.21 -0.000048    0.16     88.37   
    42. A(B   2,B   9,B   8)           84.48  0.006394    0.19     84.67   
    43. A(B   1,B  10,B  11)          109.32  0.002570    0.15    109.47   
    44. A(B   2,B  10,B   6)           90.54 -0.000499    0.46     91.00   
    45. A(B   1,B  10,B   6)           63.39  0.004831   -0.34     63.05   
    46. A(B   1,B  10,B   2)           88.49 -0.001316    4.89     93.38   
    47. A(B   6,B  10,B  11)           52.25 -0.001182   -0.26     51.99   
    48. A(B   2,B  10,B  11)           67.69 -0.000578   -1.30     66.39   
    49. A(B   6,B  11,B   7)          105.47 -0.000710    1.00    106.47   
    50. A(B   7,B  11,B  10)          125.60 -0.002741   -1.46    124.14   
    51. A(B   6,B  11,B  10)           62.38  0.001965   -0.82     61.55   
    52. D(B   9,B   2,B   1,B   3)     -0.92  0.001698   -0.29     -1.21   
    53. D(B   9,B   2,B   1,B  10)   -130.77 -0.000327   -3.44   -134.21   
    54. D(B  10,B   2,B   1,B   3)    129.84  0.002025    3.15    133.00   
    55. D(B   3,B   2,B   1,B  10)   -129.84 -0.002025   -3.15   -133.00   
    56. D(B   1,B   3,B   2,B   9)    179.00  0.001874    0.13    179.13   
    57. D(B   1,B   3,B   2,B  10)    -35.10  0.001079    3.23    -31.86   
    58. D(B   2,B   3,B   1,B  10)     38.26 -0.000334   -4.31     33.95   
    59. D(B   9,B   8,B   5,B   0)     50.49  0.008643   -0.75     49.75   
    60. D(B   4,B   9,B   2,B   3)   -107.68  0.001005   -0.49   -108.17   
    61. D(B   8,B   9,B   7,B  11)     26.19  0.002095   -0.38     25.81   
    62. D(B   5,B   9,B   2,B   1)    -63.60 -0.000235    0.10    -63.50   
    63. D(B   5,B   9,B   2,B   3)    -64.20  0.000858   -0.05    -64.25   
    64. D(B   7,B   9,B   8,B   5)   -170.85 -0.000045   -0.53   -171.37   
    65. D(B   7,B   9,B   2,B   1)    104.19 -0.000044   -0.53    103.66   
    66. D(B   5,B   9,B   7,B  11)      1.78  0.000566    0.70      2.47   
    67. D(B   2,B   9,B   7,B  11)    -39.54 -0.000921   -0.47    -40.01   
    68. D(B   7,B   9,B   5,B   8)     29.15  0.001789   -1.33     27.83   
    69. D(B   7,B   9,B   5,B   0)    -65.38 -0.004985   -1.08    -66.46   
    70. D(B   4,B   9,B   5,B   8)    128.48 -0.001410    0.07    128.55   
    71. D(B   4,B   9,B   5,B   0)     33.95 -0.008185    0.32     34.27   
    72. D(B   4,B   9,B   2,B  10)   -149.39 -0.003359    4.72   -144.67   
    73. D(B   4,B   9,B   7,B  11)    -82.50  0.001166   -0.75    -83.25   
    74. D(B   4,B   9,B   2,B   1)   -107.08 -0.000088   -0.34   -107.42   
    75. D(B   2,B   9,B   5,B   8)     64.87  0.002386   -0.50     64.36   
    76. D(B   2,B   9,B   8,B   5)   -121.37 -0.002692   -0.93   -122.30   
    77. D(B   4,B   9,B   8,B   5)    -36.78 -0.002178   -0.23    -37.01   
    78. D(B   2,B   9,B   5,B   0)    -29.66 -0.004389   -0.26    -29.92   
    79. D(B   5,B   9,B   2,B  10)   -105.91 -0.003507    5.16   -100.75   
    80. D(B   6,B  10,B   1,B   3)     31.74  0.001133    4.06     35.80   
    81. D(B   6,B  10,B   1,B   2)     91.37 -0.000083   -1.52     89.85   
    82. D(B   2,B  10,B   1,B   3)    -59.63  0.001216    5.58    -54.05   
    83. D(B   2,B  10,B   6,B  11)    -60.83  0.000853    2.63    -58.19   
    84. D(B   1,B  10,B   6,B  11)   -148.86  0.001946   -2.37   -151.24   
    85. D(B   6,B  10,B   2,B   9)      4.07 -0.000688   -5.27     -1.20   
    86. D(B   6,B  10,B   2,B   3)    -35.19 -0.005168   -0.56    -35.75   
    87. D(B   6,B  10,B   2,B   1)    -63.36 -0.004820    1.14    -62.22   
    88. D(B   1,B  10,B   2,B   9)     67.43  0.004132   -6.41     61.02   
    89. D(B  11,B  10,B   2,B   1)   -111.63 -0.003527    2.53   -109.10   
    90. D(B   1,B  10,B   2,B   3)     28.17 -0.000348   -1.70     26.47   
    91. D(B  11,B  10,B   1,B   3)      6.06 -0.000409    5.96     12.03   
    92. D(B  11,B  10,B   1,B   2)     65.69 -0.001625    0.39     66.08   
    93. D(B   7,B  11,B  10,B   6)    -89.75 -0.001904   -1.55    -91.30   
    94. D(B   7,B  11,B  10,B   2)     19.56 -0.001235    1.33     20.89   
    95. D(B   7,B  11,B  10,B   1)    -60.42  0.001773   -3.81    -64.23   
    96. D(B   6,B  11,B  10,B   2)    109.31  0.000669    2.88    112.19   
    97. D(B   6,B  11,B  10,B   1)     29.33  0.003677   -2.26     27.07   
    98. D(B  10,B  11,B   7,B   9)     33.08  0.001085   -0.47     32.61   
    99. D(B   6,B  11,B   7,B   9)    -33.75 -0.000877   -0.15    -33.90   
   100. D(B   7,B  11,B   6,B  10)    122.47 -0.002787   -2.08    120.39   
    ----------------------------------------------------------------------------

Geometry step timings:
Preparation and reading OPT file:      0.000 s ( 1.073 %)
Internal coordinates            :      0.000 s ( 1.329 %)
B/P matrices and projection     :      0.001 s (20.700 %)
Hessian update/contruction      :      0.001 s (19.039 %)
Making the step                 :      0.001 s (29.313 %)
Converting the step to Cartesian:      0.000 s ( 3.578 %)
Storing new data                :      0.000 s ( 1.303 %)
Checking convergence            :      0.000 s ( 1.380 %)
Final printing                  :      0.001 s (22.285 %)
Total time                      :      0.004 s

Time for energy+gradient        :      0.053 s
Time for complete geometry iter :      0.059 s




    ----------------------------------------------------------------------------
                                  WARNING !!!
       The optimization did not converge but reached the maximum number of
       optimization cycles.
       Please check your results very carefully.
    ----------------------------------------------------------------------------



--------------------------------
SUGGESTED CITATIONS FOR THIS RUN
--------------------------------

Below you find a list of papers that are relevant to this ORCA run
We neither can nor want to force you to cite these papers, but we appreciate if you do
You receive ORCA, which is the product of decades of hard work by many enthusiastic individuals, for free
The only thing we kindly ask in return is that you cite our papers,
We deeply appreciate it, if you show your appreciation for ORCA by not just citing the generic ORCA reference.

Please note that relegating all ORCA citations to the supporting information does *not* help us.
SI sections are not indexed - citations you put there will not count into any citation statistics
But we need these citations in order to attract the funding resources that allow us to do what we are doing

Therefore, if you are a happy ORCA user, please consider citing a few of the papers listed below in the main body of your paper

In addition to the list printed below, the program has created the file random_d1.50_003_m1.bibtex that contains the list in bibtex format
You can import this file easily into all common literature databanks and citation aid programs

It goes without saying that in many instances, there are alternative algorithms to achieve similar
results as the ones you have gotten from ORCA. It is, of course, also the case that in some instances
ORCA just re-implements algorithms worked out by others. We are fully aware of that and we are also
fully appreciative of our colleagues work. Hence this citation list should not be read as indicating
that the listed papers, which are focused on our own work, are the only ones worth citing. It simply
meant to make it easier for users to cite ORCA specific papers. It is not a substitute for doing your
own literature research and citing the relevant literature in a scientifically appropriate manner.

List of essential papers. We consider these as the minimum necessary citations

  1. Bannwarth, C.; Ehlert, S.; Grimme, S.
     GFN2-xTB—An Accurate and Broadly Parametrized Self-Consistent Tight-Binding Quantum Chemical Method with Multipole Electrostatics and Density-Dependent Dispersion Contributions
     J. Chem. Theory Comput. 2019 15(3), 1652-1671
     doi.org/10.1021/acs.jctc.8b01176
  2. Neese, F.
     Software update: the ORCA program system, version 6.0
     WIRES Comput. Molec. Sci. 2025 15(1), e70019
     doi.org/10.1002/wcms.70019

List of papers to cite with high priority. The work reported in these papers was absolutely
necessary for this run to complete.
Our perspective: the developers of density functionals and basis sets usually get cited in chemistry papers
Good! But without the algorithms to do something with them, the functionals or basis sets would not do anything.
Hence, in our opinion, the algorithm design and method developments papers are equally worthy of getting cited

  1. Bannwarth, C.; Caldeweyher, E.; Ehlert, S.; Hansen, A.; Pracht, P.; Seibert, J.; Spicher, S.; Grimme, S.
     Extended tight-binding quantum chemistry methods
     WIRES Comput. Molec. Sci. 2020 11(2), e1493
     doi.org/10.1002/wcms.1493

List of suggested additional citations. These are papers that are important in the 'surrounding' of 
of this run, or papers that preceded the highly important papers. If you like your results we are grateful for a citation.

  1. Neese, F.
     The ORCA program system
     WIRES Comput. Molec. Sci. 2012 2(1), 73-78
     doi.org/10.1002/wcms.81
  2. Neese, F.
     Software update: the ORCA program system, version 4.0
     WIRES Comput. Molec. Sci. 2018 8(1), 1-6
     doi.org/10.1002/wcms.1327
  3. Neese, F.; Wennmohs, F.; Becker, U.; Riplinger, C.
     The ORCA quantum chemistry program package
     J. Chem. Phys. 2020 152(22), 224108
     doi.org/10.1063/5.0004608
  4. Neese, F.
     Software update: The ORCA program system—Version 5.0
     WIRES Comput. Molec. Sci. 2022 12(1), e1606
     doi.org/10.1002/wcms.1606

List of optional additional citations

  1. Neese, F.
     Approximate second-order SCF convergence for spin unrestricted wavefunctions
     Chem. Phys. Lett. 2000 325(1-3), 93-98
     doi.org/10.1016/s0009-2614(00)00662-x

Timings for individual modules:

Sum of individual times          ...        2.986 sec (=   0.050 min)
Geometry relaxation              ...        0.295 sec (=   0.005 min)   9.9 %
XTB module                       ...        2.692 sec (=   0.045 min)  90.1 %
                             ****ORCA TERMINATED NORMALLY****
TOTAL RUN TIME: 0 days 0 hours 0 minutes 3 seconds 988 msec
