
                                 *****************
                                 * O   R   C   A *
                                 *****************

                                            #,                                       
                                            ###                                      
                                            ####                                     
                                            #####                                    
                                            ######                                   
                                           ########,                                 
                                     ,,################,,,,,                         
                               ,,#################################,,                 
                          ,,##########################################,,             
                       ,#########################################, ''#####,          
                    ,#############################################,,   '####,        
                  ,##################################################,,,,####,       
                ,###########''''           ''''###############################       
              ,#####''   ,,,,##########,,,,          '''####'''          '####       
            ,##' ,,,,###########################,,,                        '##       
           ' ,,###''''                  '''############,,,                           
         ,,##''                                '''############,,,,        ,,,,,,###''
      ,#''                                            '''#######################'''  
     '                                                          ''''####''''         
             ,#######,   #######,   ,#######,      ##                                
            ,#'     '#,  ##    ##  ,#'     '#,    #''#        ,####,    ,#,          
            ##       ##  ##   ,#'  ##            #'  '#       #'       ,# #          
            ##       ##  #######   ##           ,######,      #####,      #          
            '#,     ,#'  ##    ##  '#,     ,#' ,#      #,     #,   #      #          
             '#######'   ##     ##  '#######'  #'      '#     '####' #    #          



                #########################################################
                #                        -***-                          #
                #          Department of theory and spectroscopy        #
                #                                                       #
                #                      Frank Neese                      #
                #                                                       #
                #     Directorship, Architecture, Infrastructure        #
                #                    SHARK, DRIVERS                     #
                #        Core code/Algorithms in most modules           #
                #                                                       #
                #        Max Planck Institute fuer Kohlenforschung      #
                #                Kaiser Wilhelm Platz 1                 #
                #                 D-45470 Muelheim/Ruhr                 #
                #                      Germany                          #
                #                                                       #
                #                  All rights reserved                  #
                #                        -***-                          #
                #########################################################


                         Program Version 6.1.1  -  RELEASE   -
                                (GIT: $487d211c$)
                          ($2025-11-21 10:33:24 +0100$)
                                                                         
                                  - NO-DMRG VERSION -                    
                                                                         


 With contributions from (in alphabetic order):
[Max-Planck-Institut fuer Kohlenforschung]                               
  Daniel Aravena         : Magnetic Suceptibility                        
  Michael Atanasov       : Ab Initio Ligand Field Theory (pilot matlab implementation)
  Alexander A. Auer      : GIAO ZORA, VPT2 properties, NMR spectrum      
  Ute Becker             : All parallelization in ORCA, NUMFREQ, NUMCALC 
  Giovanni Bistoni       : ED, misc. LED, open-shell LED, HFLD           
  Dmytro Bykov           : pre 5.0 version of the SCF Hessian            
  Marcos Casanova-Páez   : Triplet and SCS-CIS(D). UHF-(DLPNO)-IP/EA/STEOM-CCSD. UHF-CVS-IP/STEOM-CCSD   
  Vijay G. Chilkuri      : MRCI spin determinant printing, contributions to CSF-ICE 
  Pauline Colinet        : FMM embedding                                 
  Dipayan Datta          : RHF DLPNO-CCSD density                        
  Achintya Kumar Dutta   : EOM-CC, STEOM-CC                              
  Nicolas Foglia         : Exact transition moments, OPA infrastructure, MCD improvements    
  Dmitry Ganyushin       : Spin-Orbit,Spin-Spin,Magnetic field MRCI      
  Miquel Garcia-Rates    : C-PCM and meta-GGA Hessian, CCSD/C-PCM, Gaussian charge scheme 
  Tiago L. C. Gouveia    : GS-ROHF, GS-ROCIS                             
  Yang Guo               : DLPNO-NEVPT2, F12-NEVPT2, CIM, IAO-localization        
  Andreas Hansen         : Spin unrestricted coupled pair/coupled cluster methods 
  Ingolf Harden          : AUTO-CI MPn and infrastructure                
  Benjamin Helmich-Paris : MC-RPA, TRAH-(SCF,CASSCF), AVAS, COSX integrals, SCF dyn. polar., MC-PDFT, srDFT 
  Lee Huntington         : MR-EOM, pCC                                   
  Robert Izsak           : Overlap fitted RIJCOSX, COSX-SCS-MP3, EOM     
  Riya Kayal             : Wick's Theorem for AUTO-CI, AUTO-CI UHF-CCSDT 
  Emily Kempfer          : AUTO-CI RHF CISDT and CCSDT, approximate NEVPT4
  Christian Kollmar      : KDIIS, OOCD, Brueckner-CCSD(T), CCSD density, CASPT2, CASPT2-K, improved NEVPT2 
  Axel Koslowski         : Symmetry handling                             
  Simone Kossmann        : meta-GGA functionals, TD-DFT gradient, OOMP2, (MP2 Hessian; deprecated post 5.0) 
  Lucas Lang             : DCDCAS, Hyperfine gauge corrections, ICE-SOC+SSC
  Marvin Lechner         : AUTO-CI (C++ implementation), FIC-MRCC        
  Spencer Leger          : CASSCF response                               
  Dagmar Lenk            : GEPOL surface, SMD, ORCA-2-JSON               
  Dimitrios Liakos       : Extrapolation schemes; Compound Job, Property file
  Dimitrios Manganas     : Further ROCIS development; embedding schemes. LFT, Crystal Embedding 
  Dimitrios Pantazis     : SARC Basis sets                               
  Anastasios Papadopoulos: AUTO-CI, single reference methods and gradients 
  Taras Petrenko         : pre 6.0 DFT Hessian and TD-DFT gradient,  ECA, NRVS 
  Petra Pikulova         : Analytic Raman intensities                    
  Peter Pinski           : DLPNO-MP2, DLPNO-MP2 Gradient                 
  Shashank Vittal Rao    : ES-AILFT, MagRelax                            
  Christoph Reimann      : Effective Core Potentials                     
  Marius Retegan         : Local ZFS, SOC                                
  Christoph Riplinger    : Optimizer, TS searches, QM/MM, DLPNO-CCSD(T), (RO)-DLPNO pert. Triples 
  Michael Roemelt        : Original ROCIS implementation, recursive CI coupling coefficients
  Masaaki Saitow         : Open-shell DLPNO-CCSD energy and density      
  Barbara Sandhoefer     : DKH picture change effects                    
  Yorick L. A. Schmerwitz: GMF and freeze-and-release deltaSCF, NEB S-IDPP initial path                    
  Kantharuban Sivalingam : CASSCF convergence/infrastructure, NEVPT2, NEVPT3, NEVPT4(SD), FIC-MRCI and CEPA variants
  Bernardo de Souza      : ESD, SOC TD-DFT                               
  Georgi L. Stoychev     : AutoAux, RI-MP2 NMR, DLPNO-MP2 response, X2C  
  Van Anh Tran           : RI-MP2 g-tensors                              
  Willem Van den Heuvel  : Paramagnetic NMR                              
  Zikuan Wang            : NOTCH, Electric field optimization            
  Frank Wennmohs         : Technical directorship and infrastructure     
  Hang Xu                : AUTO-CI-Response properties                   
                                                                         
[FACCTs GmbH]                                                            
  Markus Bursch, Nicolas Foglia, Miquel Garcia-Rates, Ingolf Harden, Hagen Neugebauer, Anastasios Papadopoulos, 
  Christoph Riplinger, Bernardo de Souza, Georgi L. Stoychev                                                    
                                                                 
  APM, various basis sets, CI-OPT, improved COSX, DLPNO-Multilevel,           
  DOCKER, DRACO, updates on ESD, Fragmentator, GOAT, IRC, LR-CPCM, L-BFGS, MBIS, meta-GGA TD-DFT gradient, ML-optimized integration grids, 
  MM, NACMEs, nearIR, NEB, NEB-TS, NL-DFT gradient (VV10), 2- and 3-layer-ONIOM, interface openCOSMO-RS, QMMM,   
  Crystal-QMMM, RESP, rigid body optimization, SF, symmetry and pop. for TD-DFT, various functionals, SOLVATOR                                   
                                                                         
[Other institutions]                                                     
  V. Asgeirsson          : NEB                                           
  Christoph Bannwarth    : sTDA-DFT, sTD-DFT, PBEh-3c, B97-3c, D3        
  Giovanni Bistoni       : ETS/NOCV, ADLD/ADEX, COVALED                  
  Martin Brehm           : Molecular dynamics                            
  Ronald Cardenas        : ETS/NOCV                                      
  Martina Colucci        : COVALED                                       
  Sebastian Ehlert       : rSCAN, r2SCAN, r2SCAN-3c, D4, dhf basis sets  
  Marvin Friede          : D4 for Fr, Ra, Ac-Lr                          
  Lars Goerigk           : TD-DFT with DH, B97 family of functionals     
  Stefan Grimme          : VdW corrections, initial TS optimization, DFT functionals, gCP, sTDA/sTD-DF 
  Waldemar Hujo          : DFT-NL                                        
  H. Jonsson             : NEB                                           
  Holger Kruse           : gCP                                           
  Marcel Mueller         : wB97X-3c, vDZP basis set                      
  Hagen Neugebauer       : wr2SCAN, Native XTB                           
  Gianluca Regni         : ADLD/ADEX                                     
  Tobias Risthaus        : pre 6.0 range-separated hybrid DFT and stability analysis
  Lukas Wittmann         : regularized MP2, r2SCAN double-hybrids, wr2SCAN        
                                                                         
We gratefully acknowledge several colleagues who have allowed us to      
interface, adapt or use parts of their codes:                            
  Ed Valeev, F. Pavosevic, A. Kumar             : LibInt (2-el integral package), F12 methods 
  Garnet Chan, S. Sharma, J. Yang, R. Olivares  : DMRG                   
  Ulf Ekstrom                                   : XCFun DFT Library      
  Mihaly Kallay                                 : mrcc  (arbitrary order and MRCC methods)
  Frank Weinhold                                : gennbo (NPA and NBO analysis)           
  Simon Mueller                                 : openCOSMO-RS                            
  Christopher J. Cramer and Donald G. Truhlar   : smd solvation model                     
  S Lehtola, MJT Oliveira, MAL Marques          : LibXC Library                           
  Liviu Ungur et al                             : ANISO software                          


 Your calculation uses the libint2 library for the computation of 2-el integrals
 For citations please refer to: http://libint.valeyev.net

 Your ORCA version has been built with support for libXC version: 7.0.0
 For citations please refer to: https://libxc.gitlab.io

 This ORCA versions uses:
   CBLAS   interface :  Fast vector & matrix operations
   LAPACKE interface :  Fast linear algebra routines
   SCALAPACK package :  Parallel linear algebra routines
   Shared memory     :  Shared parallel matrices
   BLAS/LAPACK       :  OpenBLAS 0.3.29  USE64BITINT DYNAMIC_ARCH NO_AFFINITY Zen SINGLE_THREADED
        Core in use  :  Zen
   Copyright (c) 2011-2014, The OpenBLAS Project


  ***********************************
  * Starting time: Fri Apr 17 12:14:10 2026
  * Host name:     vmi3233575
  * Process ID:    332416
  * Working dir.:  /root/orca_b12_vps_pack/jobs/01_xtb/mult_1
  ***********************************

NOTE: MaxCore=500 MB was set to SCF,MP2,MDCI,CIPSI,MRCI,RASCI and CIS
      => If you want to overwrite this, your respective input block should be placed after the MaxCore statement


***************************************
The coordinates will be read from file: ../../../starts/random_d1.70_008.xyz
***************************************


Your calculation utilizes the semiempirical GFN2-xTB method
Please cite in your paper:
Bannwarth, C.; Ehlert S.; Grimme, S. J. Chem. Theory Comput. 2019, 15, 1652.
   

================================================================================

================================================================================
                                        WARNINGS
                       Please study these warnings very carefully!
================================================================================


WARNING: Geometry Optimization
  ===> : Switching off AutoStart
         For restart on a previous wavefunction, please use MOREAD

WARNING: Found dipole moment calculation with XTB calculation
  ===> : Switching off dipole moment calculation

Environment variable XTBEXE for xtb has been set!

================================================================================
                                       INPUT FILE
================================================================================
NAME = random_d1.70_008_m1.inp
|  1> ! GFN2-xTB TightSCF TightOpt
|  2> 
|  3> %pal
|  4>   nprocs 1
|  5> end
|  6> 
|  7> %maxcore 500
|  8> 
|  9> * xyzfile 0 1 ../../../starts/random_d1.70_008.xyz
| 10> 
| 11>                          ****END OF INPUT****
================================================================================

                       *****************************
                       * Geometry Optimization Run *
                       *****************************

Geometry optimization settings:
Update method            Update   .... BFGS
Choice of coordinates    CoordSys .... (2022) Redundant Internals
Initial Hessian          InHess   .... Almloef's Model
Max. no of cycles        MaxIter  .... 50

Convergence Tolerances:
Energy Change            TolE     ....  1.0000e-06 Eh
Max. Gradient            TolMAXG  ....  1.0000e-04 Eh/bohr
RMS Gradient             TolRMSG  ....  3.0000e-05 Eh/bohr
Max. Displacement        TolMAXD  ....  1.0000e-03 bohr
RMS Displacement         TolRMSD  ....  6.0000e-04 bohr
Strict Convergence                .... False

------------------------------------------------------------------------------
                        ORCA OPTIMIZATION COORDINATE SETUP
------------------------------------------------------------------------------

The optimization will be done in redundant internal coordinates (2022)
Making redundant internal coordinates   ...  (2022 redundants) done
Evaluating the initial hessian          ...  (Almloef) done
Evaluating the coordinates              ...  done
Calculating the B-matrix                .... done
Calculating the G-matrix                .... done
The number of degrees of freedom        ....  287

    -----------------------------------------------------------------
                    Redundant Internal Coordinates


    -----------------------------------------------------------------
         Definition                    Initial Value    Approx d2E/dq
    -----------------------------------------------------------------
      1. B(B   1,B   0)                  2.8070         0.010000   
      2. B(B   2,B   1)                  2.8275         0.010000   
      3. B(B   2,B   0)                  2.6706         0.010000   
      4. B(B   3,B   0)                  3.6937         0.010000   
      5. B(B   4,B   0)                  2.9772         0.010000   
      6. B(B   4,B   3)                  2.4652         0.016144   
      7. B(B   5,B   3)                  2.9139         0.010000   
      8. B(B   6,B   2)                  2.2930         0.030387   
      9. B(B   6,B   0)                  1.5885         0.404348   
     10. B(B   7,B   5)                  2.5952         0.010012   
     11. B(B   7,B   1)                  2.8134         0.010000   
     12. B(B   9,B   1)                  2.4778         0.015413   
     13. B(B   9,B   5)                  2.7471         0.010000   
     14. B(B   9,B   0)                  1.6579         0.313344   
     15. B(B   9,B   7)                  2.9470         0.010000   
     16. B(B   9,B   3)                  3.0512         0.010000   
     17. B(B  10,B   5)                  2.6953         0.010000   
     18. B(B  10,B   2)                  2.0189         0.083165   
     19. B(B  10,B   8)                  1.4846         0.592085   
     20. B(B  10,B   1)                  2.8202         0.010000   
     21. B(B  10,B   9)                  2.6808         0.010000   
     22. B(B  10,B   7)                  1.6804         0.288425   
     23. B(B  11,B   8)                  1.8564         0.151108   
     24. B(B  11,B   5)                  2.2528         0.035223   
     25. A(B   6,B   0,B   9)          155.7819         0.369079   
     26. A(B   2,B   0,B   6)           58.7817         0.209664   
     27. A(B   1,B   0,B   9)           61.1682         0.190685   
     28. A(B   1,B   0,B   3)          115.7412         0.107711   
     29. A(B   2,B   0,B   9)          100.2647         0.202897   
     30. A(B   3,B   0,B   4)           41.6661         0.105242   
     31. A(B   1,B   0,B   4)          155.7061         0.122950   
     32. A(B   1,B   0,B   6)          111.4882         0.196726   
     33. A(B   3,B   0,B   6)          125.0360         0.140538   
     34. A(B   2,B   0,B   4)          119.0736         0.127027   
     35. A(B   4,B   0,B   9)           96.0538         0.177267   
     36. A(B   4,B   0,B   6)           85.6543         0.182511   
     37. A(B   2,B   0,B   3)          125.2597         0.109959   
     38. A(B   1,B   0,B   2)           62.0967         0.132808   
     39. A(B   3,B   0,B   9)           54.6717         0.137648   
     40. A(B   0,B   1,B   2)           56.5830         0.127448   
     41. A(B   0,B   1,B  10)           64.6591         0.127685   
     42. A(B   7,B   1,B  10)           34.7089         0.127478   
     43. A(B   9,B   1,B  10)           60.3870         0.139865   
     44. A(B   0,B   1,B   9)           35.8842         0.140425   
     45. A(B   2,B   1,B  10)           41.8907         0.127030   
     46. A(B   7,B   1,B   9)           67.3459         0.140150   
     47. A(B   0,B   1,B   7)           89.8734         0.127902   
     48. A(B   2,B   1,B   9)           78.9904         0.139554   
     49. A(B   2,B   1,B   7)           75.2214         0.127243   
     50. A(B   6,B   2,B  10)          108.0906         0.204471   
     51. A(B   1,B   2,B   6)           91.8390         0.147950   
     52. A(B   1,B   2,B  10)           68.8592         0.163037   
     53. A(B   0,B   2,B   1)           61.3203         0.132066   
     54. A(B   0,B   2,B   6)           36.3296         0.156167   
     55. A(B   0,B   2,B  10)           78.4889         0.173358   
     56. A(B   0,B   3,B   9)           26.3141         0.104273   
     57. A(B   4,B   3,B   9)           79.5305         0.131418   
     58. A(B   0,B   3,B   4)           53.4047         0.113862   
     59. A(B   4,B   3,B   5)          103.0056         0.136549   
     60. A(B   0,B   3,B   5)           70.5579         0.106120   
     61. A(B   5,B   3,B   9)           54.7845         0.118209   
     62. A(B   0,B   4,B   3)           84.9292         0.134110   
     63. A(B   7,B   5,B  10)           36.9775         0.140179   
     64. A(B  10,B   5,B  11)           49.5448         0.157036   
     65. A(B   7,B   5,B  11)           59.9361         0.162942   
     66. A(B   3,B   5,B  10)          114.0291         0.128267   
     67. A(B   7,B   5,B   9)           66.8880         0.138023   
     68. A(B   9,B   5,B  10)           59.0116         0.134107   
     69. A(B   3,B   5,B   9)           65.1515         0.126612   
     70. A(B   3,B   5,B   7)          131.8755         0.131675   
     71. A(B   9,B   5,B  11)          108.4473         0.154170   
     72. A(B   3,B   5,B  11)          142.2836         0.145732   
     73. A(B   0,B   6,B   2)           84.8887         0.254168   
     74. A(B   1,B   7,B   5)          109.7869         0.135392   
     75. A(B   1,B   7,B   9)           50.8879         0.123627   
     76. A(B   1,B   7,B  10)           72.8645         0.188262   
     77. A(B   5,B   7,B   9)           59.0208         0.130516   
     78. A(B   5,B   7,B  10)           74.7502         0.208011   
     79. A(B   9,B   7,B  10)           64.1293         0.177829   
     80. A(B  10,B   8,B  11)           77.5310         0.347869   
     81. A(B   5,B   9,B   7)           54.0912         0.125590   
     82. A(B   5,B   9,B  10)           59.5311         0.134654   
     83. A(B   0,B   9,B   5)          120.8725         0.195877   
     84. A(B   0,B   9,B  10)           84.3239         0.201931   
     85. A(B   1,B   9,B   5)          115.7207         0.143051   
     86. A(B   1,B   9,B   7)           61.7661         0.134774   
     87. A(B   1,B   9,B  10)           66.1442         0.146113   
     88. A(B   7,B   9,B  10)           34.3332         0.127663   
     89. A(B   3,B   9,B   5)           60.0641         0.122554   
     90. A(B   0,B   9,B   1)           82.9475         0.222702   
     91. A(B   3,B   9,B   7)          114.0429         0.117416   
     92. A(B   3,B   9,B  10)          110.2227         0.124455   
     93. A(B   0,B   9,B   3)           99.0142         0.172000   
     94. A(B   0,B   9,B   7)          116.2806         0.179511   
     95. A(B   8,B  10,B   9)          166.5031         0.219426   
     96. A(B   7,B  10,B   9)           81.5375         0.199832   
     97. A(B   1,B  10,B   5)          106.7287         0.131449   
     98. A(B   5,B  10,B   9)           61.4573         0.136662   
     99. A(B   2,B  10,B   9)           91.0344         0.172642   
    100. A(B   1,B  10,B   9)           53.4688         0.131963   
    101. A(B   1,B  10,B   8)          137.5890         0.205159   
    102. A(B   5,B  10,B   8)          112.7291         0.217864   
    103. A(B   1,B  10,B   7)           72.4266         0.187709   
    104. A(B   1,B  10,B   2)           69.2501         0.163492   
    105. A(B   5,B  10,B   7)           68.2723         0.198505   
    106. A(B   2,B  10,B   8)           87.8963         0.315141   
    107. A(B   2,B  10,B   5)          142.2063         0.171640   
    108. A(B   7,B  10,B   8)          108.2379         0.388657   
    109. A(B   2,B  10,B   7)          136.8714         0.281169   
    110. A(B   5,B  11,B   8)          118.8817         0.225676   
    111. D(B   7,B   1,B   0,B   4)     27.1085         0.010000   
    112. D(B   9,B   1,B   0,B   6)   -154.4348         0.010000   
    113. D(B  10,B   1,B   0,B   2)    -47.5966         0.010000   
    114. D(B   7,B   1,B   0,B   9)     49.1515         0.010000   
    115. D(B   9,B   1,B   0,B   2)   -121.4446         0.010000   
    116. D(B   9,B   1,B   0,B   4)    -22.0430         0.010000   
    117. D(B   7,B   1,B   0,B   2)    -72.2931         0.010000   
    118. D(B  10,B   1,B   0,B   6)    -80.5868         0.010000   
    119. D(B  10,B   1,B   0,B   9)     73.8480         0.010000   
    120. D(B   7,B   1,B   0,B   6)   -105.2833         0.010000   
    121. D(B  10,B   2,B   1,B   0)    -88.1461         0.010000   
    122. D(B  10,B   2,B   0,B   6)   -144.2767         0.010000   
    123. D(B   6,B   2,B   1,B   7)    120.4231         0.010000   
    124. D(B   6,B   2,B   0,B   3)    113.1815         0.010000   
    125. D(B   6,B   2,B   1,B   9)     51.1851         0.010000   
    126. D(B  10,B   2,B   0,B   3)    -31.0952         0.010000   
    127. D(B  10,B   2,B   0,B   1)     72.0534         0.010000   
    128. D(B   6,B   2,B   0,B   1)   -143.6699         0.010000   
    129. D(B  10,B   2,B   1,B   9)    -57.5192         0.010000   
    130. D(B  10,B   2,B   1,B   7)     11.7188         0.010000   
    131. D(B  10,B   2,B   0,B   4)    -80.2747         0.010000   
    132. D(B  10,B   2,B   0,B   9)     22.6292         0.010000   
    133. D(B   6,B   2,B   1,B  10)    108.7042         0.010000   
    134. D(B   6,B   2,B   0,B   9)    166.9059         0.010000   
    135. D(B   6,B   2,B   1,B   0)     20.5581         0.010000   
    136. D(B   0,B   2,B   1,B   9)     30.6270         0.010000   
    137. D(B   5,B   3,B   1,B   7)     -3.9269         0.010000   
    138. D(B   9,B   3,B   0,B   2)     76.4904         0.010000   
    139. D(B   5,B   3,B   0,B   9)    -48.2607         0.010000   
    140. D(B   9,B   3,B   0,B   6)    150.2583         0.010000   
    141. D(B   5,B   3,B   0,B   6)    101.9977         0.010000   
    142. D(B   5,B   3,B   0,B   2)     28.2297         0.010000   
    143. D(B   4,B   3,B   1,B   2)    -39.5459         0.010000   
    144. D(B   4,B   3,B   0,B   6)    -22.0136         0.010000   
    145. D(B   5,B   3,B   1,B  10)     34.9756         0.010000   
    146. D(B   4,B   3,B   1,B  10)    -79.6550         0.010000   
    147. D(B   4,B   3,B   0,B   9)   -172.2720         0.010000   
    148. D(B   9,B   3,B   0,B   4)    172.2720         0.010000   
    149. D(B   5,B   3,B   0,B   4)    124.0113         0.010000   
    150. D(B   5,B   3,B   1,B   2)     75.0847         0.010000   
    151. D(B   4,B   3,B   1,B   7)   -118.5575         0.010000   
    152. D(B   3,B   4,B   0,B   9)      6.3340         0.010000   
    153. D(B   0,B   4,B   3,B   9)     -3.4753         0.010000   
    154. D(B   0,B   4,B   3,B   5)    -53.3445         0.010000   
    155. D(B   3,B   4,B   0,B   1)     25.6406         0.010000   
    156. D(B   3,B   4,B   0,B   2)    111.6412         0.010000   
    157. D(B   3,B   4,B   0,B   6)    162.0739         0.010000   
    158. D(B   7,B   5,B   3,B   0)     28.9400         0.010000   
    159. D(B  11,B   5,B   3,B   0)    -64.4669         0.010000   
    160. D(B  11,B   5,B   3,B   9)    -88.3501         0.010000   
    161. D(B  11,B   5,B   3,B   4)    -21.3854         0.010000   
    162. D(B  10,B   5,B   3,B   9)    -34.1374         0.010000   
    163. D(B   7,B   5,B   3,B   4)     72.0216         0.010000   
    164. D(B  10,B   5,B   3,B   0)    -10.2542         0.010000   
    165. D(B   7,B   5,B   3,B   9)      5.0569         0.010000   
    166. D(B   0,B   6,B   2,B  10)     37.0047         0.010000   
    167. D(B   2,B   6,B   0,B   9)    -32.9181         0.010000   
    168. D(B   2,B   6,B   0,B   3)   -113.5461         0.010000   
    169. D(B   2,B   6,B   0,B   1)     34.2405         0.010000   
    170. D(B   0,B   6,B   2,B   1)    -31.3337         0.010000   
    171. D(B   2,B   6,B   0,B   4)   -128.0176         0.010000   
    172. D(B  10,B   7,B   1,B   0)     41.5414         0.010000   
    173. D(B  10,B   7,B   1,B   9)     70.2566         0.010000   
    174. D(B   1,B   7,B   5,B  11)    126.4684         0.010000   
    175. D(B   9,B   7,B   5,B  10)     68.6639         0.010000   
    176. D(B   9,B   7,B   5,B  11)    130.1330         0.010000   
    177. D(B  10,B   7,B   5,B   3)    -73.6529         0.010000   
    178. D(B  10,B   7,B   5,B   9)    -68.6639         0.010000   
    179. D(B  10,B   7,B   5,B  11)     61.4691         0.010000   
    180. D(B   5,B   7,B   1,B   0)    -24.6653         0.010000   
    181. D(B   5,B   7,B   1,B   9)      4.0499         0.010000   
    182. D(B   9,B   7,B   1,B   2)    -84.0354         0.010000   
    183. D(B   9,B   7,B   1,B  10)    -70.2566         0.010000   
    184. D(B   9,B   7,B   5,B   3)     -4.9890         0.010000   
    185. D(B   9,B   7,B   1,B   0)    -28.7152         0.010000   
    186. D(B  10,B   7,B   1,B   2)    -13.7788         0.010000   
    187. D(B   1,B   9,B   7,B  10)    -88.4100         0.010000   
    188. D(B   5,B   9,B   7,B   1)    175.5544         0.010000   
    189. D(B   5,B   9,B   7,B  10)     87.1444         0.010000   
    190. D(B  10,B   9,B   7,B   5)    -87.1444         0.010000   
    191. D(B   0,B   9,B   7,B   1)     65.1289         0.010000   
    192. D(B   0,B   9,B   7,B   5)   -110.4255         0.010000   
    193. D(B   0,B   9,B   7,B  10)    -23.2811         0.010000   
    194. D(B   7,B   9,B   5,B  10)    -40.8104         0.010000   
    195. D(B   7,B   9,B   5,B  11)    -44.2296         0.010000   
    196. D(B  10,B   9,B   5,B   3)   -143.2817         0.010000   
    197. D(B  10,B   9,B   5,B  11)     -3.4192         0.010000   
    198. D(B   0,B   9,B   5,B   3)    -82.3211         0.010000   
    199. D(B   0,B   9,B   5,B  10)     60.9606         0.010000   
    200. D(B   0,B   9,B   5,B  11)     57.5414         0.010000   
    201. D(B   5,B   9,B   3,B   0)   -120.5426         0.010000   
    202. D(B   7,B   9,B   3,B   4)   -117.8680         0.010000   
    203. D(B   7,B   9,B   3,B   5)     -3.6286         0.010000   
    204. D(B  10,B   9,B   3,B   4)    -80.9294         0.010000   
    205. D(B  10,B   9,B   3,B   0)    -87.2326         0.010000   
    206. D(B  10,B   9,B   3,B   5)     33.3100         0.010000   
    207. D(B   0,B   9,B   3,B   4)      6.3032         0.010000   
    208. D(B   0,B   9,B   3,B   5)    120.5426         0.010000   
    209. D(B   5,B   9,B   1,B   0)    120.9512         0.010000   
    210. D(B   7,B   9,B   1,B   2)     78.4401         0.010000   
    211. D(B   7,B   9,B   1,B  10)     38.0576         0.010000   
    212. D(B   7,B   9,B   3,B   0)   -124.1712         0.010000   
    213. D(B   7,B   9,B   1,B   0)    124.9472         0.010000   
    214. D(B  10,B   9,B   1,B   2)     40.3825         0.010000   
    215. D(B  10,B   9,B   1,B   7)    -38.0576         0.010000   
    216. D(B   0,B   9,B   5,B   7)    101.7710         0.010000   
    217. D(B  10,B   9,B   1,B   0)     86.8896         0.010000   
    218. D(B   0,B   9,B   1,B   2)    -46.5070         0.010000   
    219. D(B   0,B   9,B   1,B  10)    -86.8896         0.010000   
    220. D(B  10,B   9,B   5,B   7)     40.8104         0.010000   
    221. D(B   0,B   9,B   1,B   7)   -124.9472         0.010000   
    222. D(B   7,B   9,B   0,B   4)    117.4177         0.010000   
    223. D(B   7,B   9,B   0,B   1)    -53.6497         0.010000   
    224. D(B  10,B   9,B   0,B   4)    104.4726         0.010000   
    225. D(B  10,B   9,B   0,B   3)    109.6303         0.010000   
    226. D(B  10,B   9,B   0,B   2)    -16.5791         0.010000   
    227. D(B  10,B   9,B   0,B   6)     11.6052         0.010000   
    228. D(B  10,B   9,B   7,B   1)     88.4100         0.010000   
    229. D(B   7,B   9,B   0,B   2)     -3.6340         0.010000   
    230. D(B   7,B   9,B   0,B   6)     24.5502         0.010000   
    231. D(B  10,B   9,B   0,B   1)    -66.5948         0.010000   
    232. D(B   7,B   9,B   0,B   3)    122.5753         0.010000   
    233. D(B   7,B  10,B   1,B   0)   -132.7971         0.010000   
    234. D(B   7,B  10,B   1,B   9)    -92.4363         0.010000   
    235. D(B   2,B  10,B   1,B   7)   -159.8241         0.010000   
    236. D(B   2,B  10,B   1,B   0)     67.3787         0.010000   
    237. D(B   2,B  10,B   1,B   9)    107.7396         0.010000   
    238. D(B   8,B  10,B   9,B   0)    -63.4865         0.010000   
    239. D(B   7,B  10,B   9,B   1)     74.3556         0.010000   
    240. D(B   7,B  10,B   9,B   5)    -69.8105         0.010000   
    241. D(B   7,B  10,B   9,B   0)    159.1370         0.010000   
    242. D(B   2,B  10,B   9,B   1)    -62.9760         0.010000   
    243. D(B   2,B  10,B   9,B   5)    152.8580         0.010000   
    244. D(B   2,B  10,B   9,B   7)   -137.3316         0.010000   
    245. D(B   2,B  10,B   9,B   0)     21.8054         0.010000   
    246. D(B   1,B  10,B   8,B  11)    148.3613         0.018949   
    247. D(B   5,B  10,B   8,B  11)     -8.7554         0.018949   
    248. D(B   9,B  10,B   8,B  11)    -70.4396         0.018949   
    249. D(B   2,B  10,B   8,B  11)   -156.1017         0.018949   
    250. D(B   9,B  10,B   7,B   1)    -54.2568         0.010000   
    251. D(B   9,B  10,B   7,B   5)     62.5660         0.010000   
    252. D(B   8,B  10,B   7,B   5)   -107.8550         0.010000   
    253. D(B   8,B  10,B   7,B   9)   -170.4210         0.010000   
    254. D(B   2,B  10,B   7,B   1)     28.1503         0.010000   
    255. D(B   2,B  10,B   7,B   5)    144.9730         0.010000   
    256. D(B   2,B  10,B   7,B   9)     82.4070         0.010000   
    257. D(B   8,B  10,B   5,B   7)    101.4392         0.010000   
    258. D(B   8,B  10,B   5,B  11)      9.2624         0.010000   
    259. D(B   7,B  10,B   5,B   3)    128.5292         0.010000   
    260. D(B   7,B  10,B   5,B   9)     92.0873         0.010000   
    261. D(B   7,B  10,B   5,B  11)    -92.1768         0.010000   
    262. D(B   2,B  10,B   5,B   3)    -11.6573         0.010000   
    263. D(B   2,B  10,B   5,B   9)    -48.0993         0.010000   
    264. D(B   8,B  10,B   7,B   1)    135.3222         0.010000   
    265. D(B   2,B  10,B   5,B   7)   -140.1865         0.010000   
    266. D(B   2,B  10,B   5,B  11)    127.6367         0.010000   
    267. D(B   9,B  10,B   2,B   0)    -13.5429         0.010000   
    268. D(B   7,B  10,B   8,B  11)     64.7122         0.018949   
    269. D(B   9,B  10,B   2,B   6)    -34.8822         0.010000   
    270. D(B   8,B  10,B   2,B   1)   -143.5127         0.010000   
    271. D(B   8,B  10,B   2,B   0)    152.9974         0.010000   
    272. D(B   8,B  10,B   2,B   6)    131.6580         0.010000   
    273. D(B   7,B  10,B   2,B   1)    -28.7485         0.010000   
    274. D(B   7,B  10,B   2,B   0)    -92.2384         0.010000   
    275. D(B   7,B  10,B   2,B   6)   -113.5778         0.010000   
    276. D(B   2,B  10,B   9,B   3)    119.3433         0.010000   
    277. D(B   8,B  10,B   1,B   2)     61.7738         0.010000   
    278. D(B   8,B  10,B   1,B   7)    -98.0503         0.010000   
    279. D(B   8,B  10,B   1,B   0)    129.1525         0.010000   
    280. D(B   7,B  10,B   9,B   3)   -103.3252         0.010000   
    281. D(B   8,B  10,B   1,B   9)    169.5134         0.010000   
    282. D(B   7,B  10,B   1,B   2)    159.8241         0.010000   
    283. D(B   5,B  11,B   8,B  10)     11.0599         0.010000   
    284. D(B   8,B  11,B   5,B   3)     69.0352         0.010000   
    285. D(B   8,B  11,B   5,B   9)     -3.9401         0.010000   
    286. D(B   8,B  11,B   5,B  10)     -7.7929         0.010000   
    287. D(B   8,B  11,B   5,B   7)    -51.7804         0.010000   
    -----------------------------------------------------------------

Number of atoms                         .... 12
Number of degrees of freedom            .... 287


         *************************************************************
         *                GEOMETRY OPTIMIZATION CYCLE   1            *
         *************************************************************
---------------------------------
CARTESIAN COORDINATES (ANGSTROEM)
---------------------------------
  B    -1.012195   -0.063479   -1.593658
  B    -1.667306    2.228569   -0.111582
  B     0.893130    1.770182   -1.220198
  B    -1.267766   -3.272378    0.217692
  B    -0.225571   -2.907883   -1.986402
  B     0.066845   -1.308719    1.906920
  B     0.051506    0.261302   -2.727783
  B    -0.116139    1.276918    2.034037
  B     2.159489    1.348614    0.848334
  B    -1.555886   -0.245617   -0.038113
  B     0.743281    0.963403    0.624462
  B     1.930611   -0.050912    2.046291

----------------------------
CARTESIAN COORDINATES (A.U.)
----------------------------
  NO LB    ZA    FRAG    MASS        X           Y           Z
   0 B   5.0000    0    10.810   -1.912771   -0.119958   -3.011577
   1 B   5.0000    0    10.810   -3.150753    4.211385   -0.210859
   2 B   5.0000    0    10.810    1.687771    3.345160   -2.305840
   3 B   5.0000    0    10.810   -2.395730   -6.183899    0.411378
   4 B   5.0000    0    10.810   -0.426267   -5.495103   -3.753756
   5 B   5.0000    0    10.810    0.126320   -2.473120    3.603556
   6 B   5.0000    0    10.810    0.097332    0.493789   -5.154763
   7 B   5.0000    0    10.810   -0.219471    2.413026    3.843774
   8 B   5.0000    0    10.810    4.080844    2.548511    1.603118
   9 B   5.0000    0    10.810   -2.940199   -0.464148   -0.072022
  10 B   5.0000    0    10.810    1.404598    1.820568    1.180062
  11 B   5.0000    0    10.810    3.648326   -0.096210    3.866930

      -----------------------------------------------------------      
     |                   =====================                   |     
     |                           x T B                           |     
     |                   =====================                   |     
     |                         S. Grimme                         |     
     |          Mulliken Center for Theoretical Chemistry        |     
     |                    University of Bonn                     |     
      -----------------------------------------------------------      

   * xtb version 6.6.1 (unknown) compiled by 'builduser@buildhost' on 2023-08-07

   xtb is free software: you can redistribute it and/or modify it under
   the terms of the GNU Lesser General Public License as published by
   the Free Software Foundation, either version 3 of the License, or
   (at your option) any later version.
   
   xtb is distributed in the hope that it will be useful,
   but WITHOUT ANY WARRANTY; without even the implied warranty of
   MERCHANTABILITY or FITNESS FOR A PARTICULAR PURPOSE.  See the
   GNU Lesser General Public License for more details.
   
   Cite this work as:
   * C. Bannwarth, E. Caldeweyher, S. Ehlert, A. Hansen, P. Pracht,
     J. Seibert, S. Spicher, S. Grimme, WIREs Comput. Mol. Sci., 2020, 11,
     e01493. DOI: 10.1002/wcms.1493
   
   for GFN2-xTB:
   * C. Bannwarth, S. Ehlert and S. Grimme., J. Chem. Theory Comput., 2019,
     15, 1652-1671. DOI: 10.1021/acs.jctc.8b01176
   for GFN1-xTB:
   * S. Grimme, C. Bannwarth, P. Shushkov, J. Chem. Theory Comput., 2017,
     13, 1989-2009. DOI: 10.1021/acs.jctc.7b00118
   for GFN0-xTB:
   * P. Pracht, E. Caldeweyher, S. Ehlert, S. Grimme, ChemRxiv, 2019, preprint.
     DOI: 10.26434/chemrxiv.8326202.v1
   for GFN-FF:
   * S. Spicher and S. Grimme, Angew. Chem. Int. Ed., 2020, 59, 15665-15673.
     DOI: 10.1002/anie.202004239
   
   for ALPB and GBSA implicit solvation:
   * S. Ehlert, M. Stahn, S. Spicher, S. Grimme, J. Chem. Theory Comput.,
     2021, 17, 4250-4261. DOI: 10.1021/acs.jctc.1c00471
   
   for DFT-D4:
   * E. Caldeweyher, C. Bannwarth and S. Grimme, J. Chem. Phys., 2017,
     147, 034112. DOI: 10.1063/1.4993215
   * E. Caldeweyher, S. Ehlert, A. Hansen, H. Neugebauer, S. Spicher,
     C. Bannwarth and S. Grimme, J. Chem. Phys., 2019, 150, 154122.
     DOI: 10.1063/1.5090222
   * E. Caldeweyher, J.-M. Mewes, S. Ehlert and S. Grimme, Phys. Chem. Chem. Phys.
     2020, 22, 8499-8512. DOI: 10.1039/D0CP00502A
   
   for sTDA-xTB:
   * S. Grimme and C. Bannwarth, J. Chem. Phys., 2016, 145, 054103.
     DOI: 10.1063/1.4959605
   
   in the mass-spec context:
   * V. Asgeirsson, C. Bauer and S. Grimme, Chem. Sci., 2017, 8, 4879.
     DOI: 10.1039/c7sc00601b
   * J. Koopman and S. Grimme, ACS Omega 2019, 4, 12, 15120-15133.
     DOI: 10.1021/acsomega.9b02011
   
   for metadynamics refer to:
   * S. Grimme, J. Chem. Theory Comput., 2019, 155, 2847-2862
     DOI: 10.1021/acs.jctc.9b00143
   
   for SPH calculations refer to:
   * S. Spicher and S. Grimme, J. Chem. Theory Comput., 2021, 17, 1701-1714
     DOI: 10.1021/acs.jctc.0c01306
   
   with help from (in alphabetical order)
   P. Atkinson, C. Bannwarth, F. Bohle, G. Brandenburg, E. Caldeweyher
   M. Checinski, S. Dohm, S. Ehlert, S. Ehrlich, I. Gerasimov, C. Hölzer
   A. Katbashev, J. Koopman, C. Lavigne, S. Lehtola, F. März, M. Müller,
   F. Musil, H. Neugebauer, J. Pisarek, C. Plett, P. Pracht, F. Pultar,
   J. Seibert, P. Shushkov, S. Spicher, M. Stahn, M. Steiner, T. Strunk,
   J. Stückrath, T. Rose, and J. Unsleber
   
 * started run on 2026/04/17 at 12:14:10.798     

           -------------------------------------------------
          |                Calculation Setup                |
           -------------------------------------------------

          program call               : /usr/bin/xtb random_d1.70_008_m1_XTB.xyz --grad -c 0 -u 0 -P 1 --namespace random_d1.70_008_m1 --input random_d1.70_008_m1_XTB.input.tmp --acc 0.200000
          calculation namespace      : random_d1.70_008_m1
          coordinate file            : random_d1.70_008_m1_XTB.xyz
          omp threads                :                     1

   ID    Z sym.   atoms
    1    5 B      1-12

molecular fragmentation (1/2 indicates fragments):
122222122122
# atoms in fragment 1/2:     3     9
 fragment masses (1/2) :       32.43       97.30
CMA distance (Bohr)    :   4.228
constraining FC (au)   :  0.0500

           -------------------------------------------------
          |                 G F N 2 - x T B                 |
           -------------------------------------------------

        Reference                      10.1021/acs.jctc.8b01176
      * Hamiltonian:
        H0-scaling (s, p, d)           1.850000    2.230000    2.230000
        zeta-weighting                 0.500000
      * Dispersion:
        s8                             2.700000
        a1                             0.520000
        a2                             5.000000
        s9                             5.000000
      * Repulsion:
        kExp                           1.500000    1.000000
        rExp                           1.000000
      * Coulomb:
        alpha                          2.000000
        third order                    shell-resolved
        anisotropic                    true
        a3                             3.000000
        a5                             4.000000
        cn-shift                       1.200000
        cn-exp                         4.000000
        max-rad                        5.000000


          ...................................................
          :                      SETUP                      :
          :.................................................:
          :  # basis functions                  48          :
          :  # atomic orbitals                  48          :
          :  # shells                           24          :
          :  # electrons                        36          :
          :  max. iterations                   250          :
          :  Hamiltonian                  GFN2-xTB          :
          :  restarted?                      false          :
          :  GBSA solvation                  false          :
          :  PC potential                    false          :
          :  electronic temp.          300.0000000     K    :
          :  accuracy                    0.2000000          :
          :  -> integral cutoff          0.3198970E+02      :
          :  -> integral neglect         0.2000000E-08      :
          :  -> SCF convergence          0.2000000E-06 Eh   :
          :  -> wf. convergence          0.2000000E-04 e    :
          :  Broyden damping             0.4000000          :
          ...................................................

 iter      E             dE          RMSdq      gap      omega  full diag
   1    -11.8812153 -0.118812E+02  0.196E+01    0.30       0.0  T
   2     10.0749661  0.219562E+02  0.262E+01    0.21       1.0  T
   3     23.2863622  0.132114E+02  0.281E+01    0.24       1.0  T
   4      4.5400881 -0.187463E+02  0.216E+01    0.09       1.0  T
   5     -6.9026018 -0.114427E+02  0.156E+01    0.36       1.0  T
   6     -0.6885894  0.621401E+01  0.195E+01    0.28       1.0  T
   7     -9.1312558 -0.844267E+01  0.125E+01    0.44       1.0  T
   8    -10.0733253 -0.942070E+00  0.117E+01    0.24       1.0  T
   9    -10.2683062 -0.194981E+00  0.102E+01    0.13       1.0  T
  10    -12.0406995 -0.177239E+01  0.865E+00    0.26       1.0  T
  11    -11.1688705  0.871829E+00  0.872E+00    0.09       1.0  T
  12    -11.6512952 -0.482425E+00  0.837E+00    0.10       1.0  T
  13    -10.8481939  0.803101E+00  0.862E+00    0.09       1.0  T
  14    -11.4718917 -0.623698E+00  0.781E+00    0.06       1.0  T
  15    -11.3335038  0.138388E+00  0.826E+00    0.09       1.0  T
  16    -12.5560159 -0.122251E+01  0.676E+00    0.12       1.0  T
  17    -12.8785705 -0.322555E+00  0.647E+00    0.06       1.0  T
  18    -12.8148864  0.636841E-01  0.593E+00    0.11       1.0  T
  19    -12.9155655 -0.100679E+00  0.565E+00    0.08       1.0  T
  20    -12.9235718 -0.800632E-02  0.563E+00    0.08       1.0  T
  21    -12.8970107  0.265611E-01  0.599E+00    0.10       1.0  T
  22    -12.7913500  0.105661E+00  0.626E+00    0.14       1.0  T
  23    -12.6613489  0.130001E+00  0.535E+00    0.14       1.0  T
  24    -12.7086015 -0.472526E-01  0.526E+00    0.14       1.0  T
  25    -12.7953293 -0.867278E-01  0.482E+00    0.14       1.0  T
  26    -12.8042760 -0.894673E-02  0.447E+00    0.14       1.0  T
  27    -12.8030100  0.126602E-02  0.437E+00    0.14       1.0  T
  28    -13.0536858 -0.250676E+00  0.270E+00    0.08       1.0  T
  29    -13.1197398 -0.660540E-01  0.221E+00    0.07       1.0  T
  30    -13.1207466 -0.100676E-02  0.217E+00    0.07       1.0  T
  31    -13.1124607  0.828595E-02  0.219E+00    0.07       1.0  T
  32    -13.1683543 -0.558937E-01  0.135E+00    0.07       1.0  T
  33    -13.1632798  0.507453E-02  0.135E+00    0.07       1.0  T
  34    -13.1624587  0.821047E-03  0.113E+00    0.07       1.0  T
  35    -13.1776633 -0.152045E-01  0.936E-01    0.07       1.0  T
  36    -13.1787060 -0.104277E-02  0.911E-01    0.07       1.0  T
  37    -13.1793841 -0.678116E-03  0.806E-01    0.07       1.0  T
  38    -13.1801372 -0.753041E-03  0.729E-01    0.07       1.0  T
  39    -13.1800180  0.119136E-03  0.612E-01    0.07       1.0  T
  40    -13.1820338 -0.201580E-02  0.522E-01    0.07       1.0  T
  41    -13.1829925 -0.958707E-03  0.400E-01    0.07       1.0  T
  42    -13.1832622 -0.269668E-03  0.361E-01    0.07       1.0  T
  43    -13.1837826 -0.520348E-03  0.218E-01    0.07       1.0  T
  44    -13.1838566 -0.740554E-04  0.179E-01    0.07       1.0  T
  45    -13.1839656 -0.109025E-03  0.926E-02    0.07       1.0  T
  46    -13.1839808 -0.151861E-04  0.652E-02    0.07       1.0  T
  47    -13.1839555  0.253291E-04  0.576E-02    0.07       1.0  T
  48    -13.1839456  0.986284E-05  0.604E-02    0.07       1.0  T
  49    -13.1840073 -0.616654E-04  0.213E-02    0.07       1.4  T
  50    -13.1840158 -0.845255E-05  0.131E-02    0.07       2.2  T
  51    -13.1840143  0.149041E-05  0.157E-02    0.07       1.8  T
  52    -13.1840181 -0.381559E-05  0.734E-03    0.07       3.9  T
  53    -13.1840173  0.774106E-06  0.857E-03    0.07       3.4  T
  54    -13.1840173  0.555794E-07  0.900E-03    0.07       3.2  T
  55    -13.1840179 -0.659751E-06  0.541E-03    0.07       5.3  T
  56    -13.1840177  0.184356E-06  0.590E-03    0.07       4.9  T
  57    -13.1840180 -0.261826E-06  0.428E-03    0.07       6.7  T
  58    -13.1840181 -0.127329E-06  0.338E-03    0.07       8.6  T
  59    -13.1840183 -0.157264E-06  0.638E-04    0.07      45.2  T
  60    -13.1840183 -0.275573E-08  0.523E-04    0.07      55.2  T
  61    -13.1840183 -0.172369E-08  0.326E-04    0.07      88.6  T
  62    -13.1840183 -0.827541E-09  0.196E-04    0.07     147.4  T
  63    -13.1840183 -0.371136E-09  0.944E-05    0.07     305.8  T

   *** convergence criteria satisfied after 63 iterations ***

         #    Occupation            Energy/Eh            Energy/eV
      -------------------------------------------------------------
         1        2.0000           -0.4284150             -11.6578
       ...           ...                  ...                  ...
        12        2.0000           -0.2799418              -7.6176
        13        2.0000           -0.2751933              -7.4884
        14        2.0000           -0.2643962              -7.1946
        15        2.0000           -0.2601119              -7.0780
        16        2.0000           -0.2557889              -6.9604
        17        1.9999           -0.2550828              -6.9412
        18        1.5870           -0.2469635              -6.7202 (HOMO)
        19        0.4131           -0.2444058              -6.6506 (LUMO)
        20        0.0001           -0.2359922              -6.4217
        21                         -0.2273731              -6.1871
        22                         -0.2253124              -6.1311
        23                         -0.2217557              -6.0343
       ...                                ...                  ...
        48                          0.9863731              26.8406
      -------------------------------------------------------------
                  HL-Gap            0.0025577 Eh            0.0696 eV
             Fermi-level           -0.2456845 Eh           -6.6854 eV

 SCC (total)                   0 d,  0 h,  0 min,  0.068 sec
 SCC setup                      ...        0 min,  0.000 sec (  0.156%)
 Dispersion                     ...        0 min,  0.000 sec (  0.122%)
 classical contributions        ...        0 min,  0.000 sec (  0.041%)
 integral evaluation            ...        0 min,  0.002 sec (  2.992%)
 iterations                     ...        0 min,  0.061 sec ( 89.980%)
 molecular gradient             ...        0 min,  0.004 sec (  6.318%)
 printout                       ...        0 min,  0.000 sec (  0.342%)

         :::::::::::::::::::::::::::::::::::::::::::::::::::::
         ::                     SUMMARY                     ::
         :::::::::::::::::::::::::::::::::::::::::::::::::::::
         :: total energy             -13.123631295490 Eh    ::
         :: gradient norm              0.239431851978 Eh/a0 ::
         :: HOMO-LUMO gap              0.069597544516 eV    ::
         ::.................................................::
         :: SCC energy               -13.184018279397 Eh    ::
         :: -> isotropic ES            0.050544098306 Eh    ::
         :: -> anisotropic ES          0.000283069553 Eh    ::
         :: -> anisotropic XC         -0.031166823674 Eh    ::
         :: -> dispersion             -0.023900655274 Eh    ::
         :: repulsion energy           0.060186315961 Eh    ::
         :: add. restraining           0.000000000000 Eh    ::
         :: total charge               0.000000000001 e     ::
         :::::::::::::::::::::::::::::::::::::::::::::::::::::


Property printout bound to 'properties.out'

           -------------------------------------------------
          | TOTAL ENERGY              -13.123631295490 Eh   |
          | GRADIENT NORM               0.239431851978 Eh/α |
          | HOMO-LUMO GAP               0.069597544516 eV   |
           -------------------------------------------------

------------------------------------------------------------------------
 * finished run on 2026/04/17 at 12:14:10.877     
------------------------------------------------------------------------
 total:
 * wall-time:     0 d,  0 h,  0 min,  0.079 sec
 *  cpu-time:     0 d,  0 h,  0 min,  0.075 sec
 * ratio c/w:     0.954 speedup
 SCF:
 * wall-time:     0 d,  0 h,  0 min,  0.068 sec
 *  cpu-time:     0 d,  0 h,  0 min,  0.065 sec
 * ratio c/w:     0.949 speedup


-------------------------   --------------------
FINAL SINGLE POINT ENERGY       -13.123631295490
-------------------------   --------------------


-------------
DIPOLE MOMENT
-------------
                                X             Y             Z
Total Dipole Moment    :      0.96400       0.33900       0.49500
                        -----------------------------------------
Magnitude (a.u.)       :      1.13545
Magnitude (Debye)      :      2.88608


------------------
CARTESIAN GRADIENT
------------------

   1   B   :   -0.015811299    0.005109738   -0.018563015
   2   B   :   -0.039044623    0.050770142   -0.002485399
   3   B   :    0.044912532    0.056879110   -0.001628394
   4   B   :   -0.038674301   -0.037835999    0.034807131
   5   B   :    0.026100066   -0.004135076   -0.052928464
   6   B   :   -0.025727159   -0.055200755    0.022420706
   7   B   :    0.012995669   -0.031704000   -0.085914349
   8   B   :   -0.015769109    0.048735747    0.053504055
   9   B   :   -0.020354165    0.056071919   -0.046723401
  10   B   :   -0.043615096   -0.030840634    0.037116886
  11   B   :    0.060358070   -0.036580844    0.005324319
  12   B   :    0.054629414   -0.021269346    0.055069925

Difference to translation invariance:
           :    0.0000000000    0.0000000000   -0.0000000000

Difference to rotation invariance:
           :   -0.0000000969    0.0000000598    0.0000000208

Norm of the Cartesian gradient     ...    0.2394318520
RMS gradient                       ...    0.0399053087
MAX gradient                       ...    0.0859143494
------------------------------------------------------------------------------
                         ORCA GEOMETRY RELAXATION STEP
------------------------------------------------------------------------------

Reading the OPT-File                    .... done
Getting information on internals        .... done
Copying old internal coords+grads       .... done
Making the new internal coordinates     .... (2022 redundants) done
Validating the new internal coordinates .... (2022 redundants) done
Calculating the B-matrix                .... done
Calculating the G,G- and P matrices     .... done
Transforming gradient to internals      .... done
Projecting the internal gradient        .... done
Number of atoms                         ....  12
Number of internal coordinates          .... 287
Current Energy                          ....   -13.123631295 Eh
Current gradient norm                   ....     0.239431852 Eh/bohr
Maximum allowed component of the step   ....  0.300
Current trust radius                    ....  0.300
Evaluating the initial hessian          ....  (Almloef) done
Projecting the Hessian                  .... done
Forming the augmented Hessian           .... done
Diagonalizing the augmented Hessian     .... done
Last element of RFO vector              ....  0.768328785
Lowest eigenvalues of augmented Hessian:
 -0.124818600  0.013796883  0.014221263  0.016111256  0.018467893
Length of the computed step             ....  0.833048798
Warning: the length of the step is outside the trust region - taking restricted step instead
The input lambda is                     ....     0.011208
   iter:   5  x=    0.003136  g=37224.564712 f(x)=   126.118858
   iter:  10  x=   -0.084892  g=   70.391228 f(x)=     2.536942
   iter:  15  x=   -0.434538  g=    0.472253 f(x)=     0.019271
The output lambda is                    ....    -0.441024 (19 iterations)
The final length of the internal step   ....  0.300000000
Converting the step to Cartesian space:
 Initial RMS(Int)=    0.0177084401
Transforming coordinates:
 Iter   0:  RMS(Cart)=    0.0419328759 RMS(Int)=    0.0176869949
done
Storing new coordinates                 .... done

                                .--------------------.
          ----------------------|Geometry convergence|-------------------------
          Item                value                   Tolerance       Converged
          ---------------------------------------------------------------------
          RMS gradient        0.0094311596            0.0000300000      NO
          MAX gradient        0.0515387911            0.0001000000      NO
          RMS step            0.0177084401            0.0006000000      NO
          MAX step            0.1085231492            0.0010000000      NO
          -------------------------------------------------------------------------
          ........................................................
          Max(Bonds)      0.0574      Max(Angles)    2.71
          Max(Dihed)        0.82      Max(Improp)    0.00
          ---------------------------------------------------------------------

The optimization has not yet converged - more geometry cycles are needed


    ---------------------------------------------------------------------------
                         Redundant Internal Coordinates
                            (Angstroem and degrees)

        Definition                    Value    dE/dq     Step     New-Value
    ----------------------------------------------------------------------------
     1. B(B   1,B   0)                2.8070  0.024905 -0.0269    2.7801   
     2. B(B   2,B   1)                2.8275  0.022847 -0.0238    2.8038   
     3. B(B   2,B   0)                2.6706  0.023119 -0.0265    2.6441   
     4. B(B   3,B   0)                3.6937  0.017436 -0.0195    3.6742   
     5. B(B   4,B   0)                2.9772  0.011183 -0.0132    2.9640   
     6. B(B   4,B   3)                2.4652  0.051539 -0.0574    2.4077   
     7. B(B   5,B   3)                2.9139  0.024047 -0.0264    2.8874   
     8. B(B   6,B   2)                2.2930  0.041661 -0.0446    2.2484   
     9. B(B   6,B   0)                1.5885  0.048413 -0.0332    1.5552   
    10. B(B   7,B   5)                2.5952  0.028659 -0.0317    2.5635   
    11. B(B   7,B   1)                2.8134  0.018219 -0.0199    2.7935   
    12. B(B   9,B   1)                2.4778  0.015910 -0.0193    2.4584   
    13. B(B   9,B   5)                2.7471  0.017361 -0.0198    2.7273   
    14. B(B   9,B   0)                1.6579  0.042605 -0.0369    1.6210   
    15. B(B   9,B   7)                2.9470  0.016793 -0.0200    2.9270   
    16. B(B   9,B   3)                3.0512  0.002669 -0.0065    3.0447   
    17. B(B  10,B   5)                2.6953  0.028001 -0.0301    2.6652   
    18. B(B  10,B   2)                2.0189  0.029591 -0.0293    1.9896   
    19. B(B  10,B   8)                1.4846 -0.009695  0.0040    1.4886   
    20. B(B  10,B   1)                2.8202  0.016968 -0.0203    2.7999   
    21. B(B  10,B   9)                2.6808  0.018128 -0.0207    2.6601   
    22. B(B  10,B   7)                1.6804  0.027672 -0.0241    1.6563   
    23. B(B  11,B   8)                1.8564  0.048580 -0.0448    1.8116   
    24. B(B  11,B   5)                2.2528  0.049247 -0.0533    2.1995   
    25. A(B   6,B   0,B   9)          155.78  0.004323   -0.53    155.25   
    26. A(B   2,B   0,B   6)           58.78  0.006262   -0.74     58.05   
    27. A(B   1,B   0,B   9)           61.17 -0.003055    0.24     61.41   
    28. A(B   1,B   0,B   3)          115.74 -0.004921    0.41    116.15   
    29. A(B   2,B   0,B   9)          100.26 -0.001714    0.18    100.45   
    30. A(B   3,B   0,B   4)           41.67  0.007166   -0.86     40.80   
    31. A(B   1,B   0,B   4)          155.71  0.002442   -0.48    155.23   
    32. A(B   1,B   0,B   6)          111.49  0.005602   -0.57    110.92   
    33. A(B   3,B   0,B   6)          125.04  0.002419   -0.24    124.80   
    34. A(B   2,B   0,B   4)          119.07  0.001768   -0.20    118.87   
    35. A(B   4,B   0,B   9)           96.05  0.005033   -0.67     95.39   
    36. A(B   4,B   0,B   6)           85.65 -0.005584    0.72     86.38   
    37. A(B   2,B   0,B   3)          125.26  0.001847   -0.25    125.01   
    38. A(B   1,B   0,B   2)           62.10 -0.000444    0.09     62.19   
    39. A(B   3,B   0,B   9)           54.67 -0.002031    0.18     54.86   
    40. A(B   0,B   1,B   2)           56.58  0.000106   -0.06     56.53   
    41. A(B   0,B   1,B  10)           64.66  0.001672   -0.16     64.49   
    42. A(B   7,B   1,B  10)           34.71  0.003382   -0.26     34.45   
    43. A(B   9,B   1,B  10)           60.39  0.000372   -0.02     60.37   
    44. A(B   0,B   1,B   9)           35.88  0.006164   -0.50     35.38   
    45. A(B   2,B   1,B  10)           41.89  0.003078   -0.30     41.60   
    46. A(B   7,B   1,B   9)           67.35 -0.000540    0.04     67.39   
    47. A(B   0,B   1,B   7)           89.87  0.005129   -0.44     89.44   
    48. A(B   2,B   1,B   9)           78.99  0.004675   -0.42     78.57   
    49. A(B   2,B   1,B   7)           75.22  0.006139   -0.52     74.70   
    50. A(B   6,B   2,B  10)          108.09  0.005945   -0.29    107.80   
    51. A(B   1,B   2,B   6)           91.84  0.007302   -0.39     91.45   
    52. A(B   1,B   2,B  10)           68.86 -0.002950    0.24     69.10   
    53. A(B   0,B   2,B   1)           61.32  0.000337   -0.03     61.29   
    54. A(B   0,B   2,B   6)           36.33  0.007581   -0.39     35.94   
    55. A(B   0,B   2,B  10)           78.49 -0.000649    0.08     78.57   
    56. A(B   0,B   3,B   9)           26.31  0.005784   -0.51     25.81   
    57. A(B   4,B   3,B   9)           79.53  0.004329   -0.35     79.18   
    58. A(B   0,B   3,B   4)           53.40 -0.001379    0.15     53.55   
    59. A(B   4,B   3,B   5)          103.01  0.004143   -0.39    102.62   
    60. A(B   0,B   3,B   5)           70.56  0.005502   -0.51     70.05   
    61. A(B   5,B   3,B   9)           54.78  0.001186   -0.12     54.67   
    62. A(B   0,B   4,B   3)           84.93 -0.005787    0.71     85.64   
    63. A(B   7,B   5,B  10)           36.98  0.002065   -0.11     36.87   
    64. A(B  10,B   5,B  11)           49.54  0.008791   -0.81     48.73   
    65. A(B   7,B   5,B  11)           59.94  0.006650   -0.58     59.36   
    66. A(B   3,B   5,B  10)          114.03 -0.006075    0.55    114.58   
    67. A(B   7,B   5,B   9)           66.89 -0.001936    0.20     67.09   
    68. A(B   9,B   5,B  10)           59.01 -0.000906    0.09     59.10   
    69. A(B   3,B   5,B   9)           65.15 -0.004415    0.45     65.60   
    70. A(B   3,B   5,B   7)          131.88 -0.006316    0.65    132.53   
    71. A(B   9,B   5,B  11)          108.45  0.008114   -0.74    107.70   
    72. A(B   3,B   5,B  11)          142.28  0.002188   -0.27    142.01   
    73. A(B   0,B   6,B   2)           84.89 -0.013843    1.13     86.01   
    74. A(B   1,B   7,B   5)          109.79 -0.000900    0.08    109.86   
    75. A(B   1,B   7,B   9)           50.89  0.000193   -0.05     50.84   
    76. A(B   1,B   7,B  10)           72.86 -0.002102    0.12     72.99   
    77. A(B   5,B   7,B   9)           59.02 -0.000829    0.11     59.13   
    78. A(B   5,B   7,B  10)           74.75 -0.001742    0.15     74.90   
    79. A(B   9,B   7,B  10)           64.13  0.000060   -0.02     64.11   
    80. A(B  10,B   8,B  11)           77.53  0.014161   -1.39     76.14   
    81. A(B   5,B   9,B   7)           54.09  0.002765   -0.31     53.78   
    82. A(B   5,B   9,B  10)           59.53  0.002337   -0.24     59.29   
    83. A(B   0,B   9,B   5)          120.87  0.000051   -0.06    120.81   
    84. A(B   0,B   9,B  10)           84.32 -0.001800    0.09     84.42   
    85. A(B   1,B   9,B   5)          115.72  0.002804   -0.28    115.44   
    86. A(B   1,B   9,B   7)           61.77  0.000346    0.00     61.77   
    87. A(B   1,B   9,B  10)           66.14 -0.000414    0.04     66.19   
    88. A(B   7,B   9,B  10)           34.33  0.003528   -0.27     34.07   
    89. A(B   3,B   9,B   5)           60.06  0.003229   -0.33     59.73   
    90. A(B   0,B   9,B   1)           82.95 -0.003108    0.26     83.21   
    91. A(B   3,B   9,B   7)          114.04  0.005988   -0.64    113.40   
    92. A(B   3,B   9,B  10)          110.22  0.003066   -0.38    109.84   
    93. A(B   0,B   9,B   3)           99.01 -0.003753    0.32     99.34   
    94. A(B   0,B   9,B   7)          116.28  0.001135   -0.11    116.17   
    95. A(B   8,B  10,B   9)          166.50  0.006512   -0.65    165.86   
    96. A(B   7,B  10,B   9)           81.54 -0.003588    0.29     81.83   
    97. A(B   1,B  10,B   5)          106.73 -0.000143    0.01    106.74   
    98. A(B   5,B  10,B   9)           61.46 -0.001431    0.15     61.61   
    99. A(B   2,B  10,B   9)           91.03  0.003416   -0.28     90.75   
   100. A(B   1,B  10,B   9)           53.47  0.000042   -0.02     53.45   
   101. A(B   1,B  10,B   8)          137.59 -0.006227    0.66    138.24   
   102. A(B   5,B  10,B   8)          112.73  0.005532   -0.59    112.14   
   103. A(B   1,B  10,B   7)           72.43 -0.001280    0.14     72.56   
   104. A(B   1,B  10,B   2)           69.25 -0.000128    0.06     69.31   
   105. A(B   5,B  10,B   7)           68.27 -0.000323   -0.05     68.23   
   106. A(B   2,B  10,B   8)           87.90 -0.003894    0.36     88.26   
   107. A(B   2,B  10,B   5)          142.21  0.001988   -0.15    142.06   
   108. A(B   7,B  10,B   8)          108.24  0.000003    0.03    108.27   
   109. A(B   2,B  10,B   7)          136.87 -0.001770    0.24    137.11   
   110. A(B   5,B  11,B   8)          118.88 -0.027821    2.71    121.60   
   111. D(B   7,B   1,B   0,B   4)     27.11 -0.001003    0.12     27.23   
   112. D(B   9,B   1,B   0,B   6)   -154.43 -0.003234    0.42   -154.02   
   113. D(B  10,B   1,B   0,B   2)    -47.60 -0.002914    0.28    -47.32   
   114. D(B   7,B   1,B   0,B   9)     49.15 -0.003137    0.29     49.44   
   115. D(B   9,B   1,B   0,B   2)   -121.44 -0.000802    0.05   -121.39   
   116. D(B   9,B   1,B   0,B   4)    -22.04  0.002134   -0.17    -22.21   
   117. D(B   7,B   1,B   0,B   2)    -72.29 -0.003938    0.34    -71.95   
   118. D(B  10,B   1,B   0,B   6)    -80.59 -0.005346    0.64    -79.95   
   119. D(B  10,B   1,B   0,B   9)     73.85 -0.002113    0.22     74.07   
   120. D(B   7,B   1,B   0,B   6)   -105.28 -0.006371    0.71   -104.58   
   121. D(B  10,B   2,B   1,B   0)    -88.15 -0.000676    0.02    -88.13   
   122. D(B  10,B   2,B   0,B   6)   -144.28 -0.001388    0.15   -144.12   
   123. D(B   6,B   2,B   1,B   7)    120.42  0.005125   -0.32    120.11   
   124. D(B   6,B   2,B   0,B   3)    113.18  0.005618   -0.59    112.59   
   125. D(B   6,B   2,B   1,B   9)     51.19  0.007324   -0.51     50.68   
   126. D(B  10,B   2,B   0,B   3)    -31.10  0.004229   -0.44    -31.53   
   127. D(B  10,B   2,B   0,B   1)     72.05 -0.003046    0.23     72.29   
   128. D(B   6,B   2,B   0,B   1)   -143.67 -0.001658    0.08   -143.59   
   129. D(B  10,B   2,B   1,B   9)    -57.52  0.003539   -0.32    -57.84   
   130. D(B  10,B   2,B   1,B   7)     11.72  0.001341   -0.13     11.58   
   131. D(B  10,B   2,B   0,B   4)    -80.27 -0.005623    0.75    -79.53   
   132. D(B  10,B   2,B   0,B   9)     22.63 -0.000147    0.00     22.63   
   133. D(B   6,B   2,B   1,B  10)    108.70  0.003785   -0.18    108.52   
   134. D(B   6,B   2,B   0,B   9)    166.91  0.001241   -0.15    166.75   
   135. D(B   6,B   2,B   1,B   0)     20.56  0.003109   -0.16     20.40   
   136. D(B   0,B   2,B   1,B   9)     30.63  0.004215   -0.34     30.28   
   137. D(B   5,B   3,B   1,B   7)     -3.93 -0.001811    0.15     -3.78   
   138. D(B   9,B   3,B   0,B   2)     76.49 -0.006086    0.66     77.16   
   139. D(B   5,B   3,B   0,B   9)    -48.26  0.002373   -0.24    -48.50   
   140. D(B   9,B   3,B   0,B   6)    150.26  0.004513   -0.58    149.68   
   141. D(B   5,B   3,B   0,B   6)    102.00  0.006886   -0.82    101.18   
   142. D(B   5,B   3,B   0,B   2)     28.23 -0.003713    0.42     28.65   
   143. D(B   4,B   3,B   1,B   2)    -39.55  0.000931   -0.02    -39.57   
   144. D(B   4,B   3,B   0,B   6)    -22.01  0.005415   -0.66    -22.68   
   145. D(B   5,B   3,B   1,B  10)     34.98  0.000979   -0.03     34.94   
   146. D(B   4,B   3,B   1,B  10)    -79.65 -0.001310    0.18    -79.47   
   147. D(B   4,B   3,B   0,B   9)   -172.27  0.000903   -0.09   -172.36   
   148. D(B   9,B   3,B   0,B   4)    172.27 -0.000903    0.09    172.36   
   149. D(B   5,B   3,B   0,B   4)    124.01  0.001470   -0.16    123.85   
   150. D(B   5,B   3,B   1,B   2)     75.08  0.003220   -0.24     74.84   
   151. D(B   4,B   3,B   1,B   7)   -118.56 -0.004100    0.37   -118.19   
   152. D(B   3,B   4,B   0,B   9)      6.33  0.000638   -0.06      6.27   
   153. D(B   0,B   4,B   3,B   9)     -3.48 -0.001066    0.10     -3.38   
   154. D(B   0,B   4,B   3,B   5)    -53.34 -0.002562    0.22    -53.12   
   155. D(B   3,B   4,B   0,B   1)     25.64 -0.001611    0.10     25.74   
   156. D(B   3,B   4,B   0,B   2)    111.64  0.002137   -0.31    111.33   
   157. D(B   3,B   4,B   0,B   6)    162.07  0.004744   -0.57    161.51   
   158. D(B   7,B   5,B   3,B   0)     28.94  0.003138   -0.27     28.67   
   159. D(B  11,B   5,B   3,B   0)    -64.47 -0.003134    0.23    -64.24   
   160. D(B  11,B   5,B   3,B   9)    -88.35 -0.007005    0.55    -87.80   
   161. D(B  11,B   5,B   3,B   4)    -21.39 -0.004125    0.35    -21.04   
   162. D(B  10,B   5,B   3,B   9)    -34.14 -0.000815   -0.02    -34.16   
   163. D(B   7,B   5,B   3,B   4)     72.02  0.002148   -0.15     71.88   
   164. D(B  10,B   5,B   3,B   0)    -10.25  0.003057   -0.34    -10.59   
   165. D(B   7,B   5,B   3,B   9)      5.06 -0.000733    0.05      5.11   
   166. D(B   0,B   6,B   2,B  10)     37.00 -0.000091    0.10     37.11   
   167. D(B   2,B   6,B   0,B   9)    -32.92 -0.002969    0.36    -32.56   
   168. D(B   2,B   6,B   0,B   3)   -113.55 -0.004625    0.60   -112.94   
   169. D(B   2,B   6,B   0,B   1)     34.24 -0.000193   -0.05     34.19   
   170. D(B   0,B   6,B   2,B   1)    -31.33  0.001117   -0.05    -31.38   
   171. D(B   2,B   6,B   0,B   4)   -128.02 -0.003356    0.45   -127.57   
   172. D(B  10,B   7,B   1,B   0)     41.54 -0.001651    0.13     41.68   
   173. D(B  10,B   7,B   1,B   9)     70.26  0.001654   -0.12     70.14   
   174. D(B   1,B   7,B   5,B  11)    126.47  0.003863   -0.48    125.99   
   175. D(B   9,B   7,B   5,B  10)     68.66  0.001055   -0.11     68.55   
   176. D(B   9,B   7,B   5,B  11)    130.13  0.007852   -0.78    129.36   
   177. D(B  10,B   7,B   5,B   3)    -73.65 -0.000226    0.05    -73.60   
   178. D(B  10,B   7,B   5,B   9)    -68.66 -0.001055    0.11    -68.55   
   179. D(B  10,B   7,B   5,B  11)     61.47  0.006796   -0.66     60.81   
   180. D(B   5,B   7,B   1,B   0)    -24.67  0.001058   -0.07    -24.74   
   181. D(B   5,B   7,B   1,B   9)      4.05  0.004362   -0.32      3.73   
   182. D(B   9,B   7,B   1,B   2)    -84.04 -0.002883    0.27    -83.77   
   183. D(B   9,B   7,B   1,B  10)    -70.26 -0.001654    0.12    -70.14   
   184. D(B   9,B   7,B   5,B   3)     -4.99  0.000830   -0.06     -5.05   
   185. D(B   9,B   7,B   1,B   0)    -28.72 -0.003305    0.25    -28.46   
   186. D(B  10,B   7,B   1,B   2)    -13.78 -0.001229    0.15    -13.63   
   187. D(B   1,B   9,B   7,B  10)    -88.41  0.003016   -0.21    -88.62   
   188. D(B   5,B   9,B   7,B   1)    175.55 -0.004854    0.36    175.92   
   189. D(B   5,B   9,B   7,B  10)     87.14 -0.001838    0.16     87.30   
   190. D(B  10,B   9,B   7,B   5)    -87.14  0.001838   -0.16    -87.30   
   191. D(B   0,B   9,B   7,B   1)     65.13 -0.004961    0.45     65.58   
   192. D(B   0,B   9,B   7,B   5)   -110.43 -0.000107    0.09   -110.34   
   193. D(B   0,B   9,B   7,B  10)    -23.28 -0.001945    0.25    -23.04   
   194. D(B   7,B   9,B   5,B  10)    -40.81 -0.003194    0.21    -40.60   
   195. D(B   7,B   9,B   5,B  11)    -44.23  0.000062   -0.07    -44.30   
   196. D(B  10,B   9,B   5,B   3)   -143.28  0.003322   -0.20   -143.48   
   197. D(B  10,B   9,B   5,B  11)     -3.42  0.003255   -0.28     -3.69   
   198. D(B   0,B   9,B   5,B   3)    -82.32  0.002864   -0.25    -82.57   
   199. D(B   0,B   9,B   5,B  10)     60.96 -0.000458   -0.04     60.92   
   200. D(B   0,B   9,B   5,B  11)     57.54  0.002797   -0.32     57.22   
   201. D(B   5,B   9,B   3,B   0)   -120.54 -0.001715    0.20   -120.34   
   202. D(B   7,B   9,B   3,B   4)   -117.87 -0.001364    0.19   -117.68   
   203. D(B   7,B   9,B   3,B   5)     -3.63 -0.000182    0.04     -3.59   
   204. D(B  10,B   9,B   3,B   4)    -80.93  0.003391   -0.21    -81.14   
   205. D(B  10,B   9,B   3,B   0)    -87.23  0.002858   -0.16    -87.39   
   206. D(B  10,B   9,B   3,B   5)     33.31  0.004573   -0.36     32.95   
   207. D(B   0,B   9,B   3,B   4)      6.30  0.000533   -0.05      6.25   
   208. D(B   0,B   9,B   3,B   5)    120.54  0.001715   -0.20    120.34   
   209. D(B   5,B   9,B   1,B   0)    120.95 -0.001053    0.02    120.97   
   210. D(B   7,B   9,B   1,B   2)     78.44  0.004944   -0.41     78.03   
   211. D(B   7,B   9,B   1,B  10)     38.06  0.004121   -0.32     37.74   
   212. D(B   7,B   9,B   3,B   0)   -124.17 -0.001897    0.24   -123.93   
   213. D(B   7,B   9,B   1,B   0)    124.95  0.003542   -0.33    124.62   
   214. D(B  10,B   9,B   1,B   2)     40.38  0.000822   -0.09     40.29   
   215. D(B  10,B   9,B   1,B   7)    -38.06 -0.004121    0.32    -37.74   
   216. D(B   0,B   9,B   5,B   7)    101.77  0.002735   -0.25    101.52   
   217. D(B  10,B   9,B   1,B   0)     86.89 -0.000579   -0.02     86.87   
   218. D(B   0,B   9,B   1,B   2)    -46.51  0.001401   -0.08    -46.59   
   219. D(B   0,B   9,B   1,B  10)    -86.89  0.000579    0.02    -86.87   
   220. D(B  10,B   9,B   5,B   7)     40.81  0.003194   -0.21     40.60   
   221. D(B   0,B   9,B   1,B   7)   -124.95 -0.003542    0.33   -124.62   
   222. D(B   7,B   9,B   0,B   4)    117.42  0.003945   -0.46    116.95   
   223. D(B   7,B   9,B   0,B   1)    -53.65  0.002350   -0.24    -53.89   
   224. D(B  10,B   9,B   0,B   4)    104.47  0.001677   -0.24    104.23   
   225. D(B  10,B   9,B   0,B   3)    109.63  0.003053   -0.39    109.24   
   226. D(B  10,B   9,B   0,B   2)    -16.58 -0.001152    0.11    -16.47   
   227. D(B  10,B   9,B   0,B   6)     11.61  0.003173   -0.41     11.20   
   228. D(B  10,B   9,B   7,B   1)     88.41 -0.003016    0.21     88.62   
   229. D(B   7,B   9,B   0,B   2)     -3.63  0.001115   -0.11     -3.74   
   230. D(B   7,B   9,B   0,B   6)     24.55  0.005440   -0.63     23.92   
   231. D(B  10,B   9,B   0,B   1)    -66.59  0.000082   -0.02    -66.62   
   232. D(B   7,B   9,B   0,B   3)    122.58  0.005320   -0.62    121.96   
   233. D(B   7,B  10,B   1,B   0)   -132.80 -0.002856    0.25   -132.55   
   234. D(B   7,B  10,B   1,B   9)    -92.44  0.003685   -0.28    -92.71   
   235. D(B   2,B  10,B   1,B   7)   -159.82  0.001176   -0.15   -159.98   
   236. D(B   2,B  10,B   1,B   0)     67.38 -0.001679    0.09     67.47   
   237. D(B   2,B  10,B   1,B   9)    107.74  0.004862   -0.43    107.31   
   238. D(B   8,B  10,B   9,B   0)    -63.49  0.004998   -0.65    -64.13   
   239. D(B   7,B  10,B   9,B   1)     74.36  0.001019   -0.04     74.31   
   240. D(B   7,B  10,B   9,B   5)    -69.81 -0.001456    0.20    -69.61   
   241. D(B   7,B  10,B   9,B   0)    159.14 -0.001578    0.20    159.34   
   242. D(B   2,B  10,B   9,B   1)    -62.98  0.003024   -0.30    -63.28   
   243. D(B   2,B  10,B   9,B   5)    152.86  0.000549   -0.06    152.80   
   244. D(B   2,B  10,B   9,B   7)   -137.33  0.002005   -0.26   -137.59   
   245. D(B   2,B  10,B   9,B   0)     21.81  0.000427   -0.06     21.75   
   246. D(B   1,B  10,B   8,B  11)    148.36 -0.002080    0.16    148.52   
   247. D(B   5,B  10,B   8,B  11)     -8.76  0.000281   -0.05     -8.80   
   248. D(B   9,B  10,B   8,B  11)    -70.44 -0.006498    0.75    -69.69   
   249. D(B   2,B  10,B   8,B  11)   -156.10 -0.002608    0.22   -155.88   
   250. D(B   9,B  10,B   7,B   1)    -54.26 -0.001003    0.10    -54.16   
   251. D(B   9,B  10,B   7,B   5)     62.57 -0.000220    0.06     62.62   
   252. D(B   8,B  10,B   7,B   5)   -107.85 -0.006005    0.67   -107.19   
   253. D(B   8,B  10,B   7,B   9)   -170.42 -0.005784    0.61   -169.81   
   254. D(B   2,B  10,B   7,B   1)     28.15  0.000676   -0.07     28.08   
   255. D(B   2,B  10,B   7,B   5)    144.97  0.001458   -0.11    144.86   
   256. D(B   2,B  10,B   7,B   9)     82.41  0.001679   -0.17     82.23   
   257. D(B   8,B  10,B   5,B   7)    101.44 -0.001889    0.21    101.65   
   258. D(B   8,B  10,B   5,B  11)      9.26 -0.000638    0.11      9.37   
   259. D(B   7,B  10,B   5,B   3)    128.53 -0.003793    0.44    128.97   
   260. D(B   7,B  10,B   5,B   9)     92.09 -0.003572    0.31     92.40   
   261. D(B   7,B  10,B   5,B  11)    -92.18  0.001251   -0.10    -92.28   
   262. D(B   2,B  10,B   5,B   3)    -11.66 -0.001816    0.21    -11.45   
   263. D(B   2,B  10,B   5,B   9)    -48.10 -0.001595    0.07    -48.02   
   264. D(B   8,B  10,B   7,B   1)    135.32 -0.006787    0.71    136.03   
   265. D(B   2,B  10,B   5,B   7)   -140.19  0.001977   -0.24   -140.42   
   266. D(B   2,B  10,B   5,B  11)    127.64  0.003228   -0.34    127.30   
   267. D(B   9,B  10,B   2,B   0)    -13.54 -0.002418    0.21    -13.33   
   268. D(B   7,B  10,B   8,B  11)     64.71  0.001139   -0.22     64.49   
   269. D(B   9,B  10,B   2,B   6)    -34.88 -0.006450    0.37    -34.51   
   270. D(B   8,B  10,B   2,B   1)   -143.51  0.004810   -0.51   -144.03   
   271. D(B   8,B  10,B   2,B   0)    153.00  0.004131   -0.44    152.55   
   272. D(B   8,B  10,B   2,B   6)    131.66  0.000099   -0.28    131.37   
   273. D(B   7,B  10,B   2,B   1)    -28.75 -0.000497    0.06    -28.68   
   274. D(B   7,B  10,B   2,B   0)    -92.24 -0.001176    0.13    -92.10   
   275. D(B   7,B  10,B   2,B   6)   -113.58 -0.005208    0.29   -113.28   
   276. D(B   2,B  10,B   9,B   3)    119.34 -0.004381    0.34    119.68   
   277. D(B   8,B  10,B   1,B   2)     61.77 -0.000851    0.06     61.84   
   278. D(B   8,B  10,B   1,B   7)    -98.05  0.000325   -0.09    -98.14   
   279. D(B   8,B  10,B   1,B   0)    129.15 -0.002530    0.16    129.31   
   280. D(B   7,B  10,B   9,B   3)   -103.33 -0.006385    0.60   -102.73   
   281. D(B   8,B  10,B   1,B   9)    169.51  0.004011   -0.36    169.15   
   282. D(B   7,B  10,B   1,B   2)    159.82 -0.001176    0.15    159.98   
   283. D(B   5,B  11,B   8,B  10)     11.06 -0.004996    0.54     11.60   
   284. D(B   8,B  11,B   5,B   3)     69.04  0.003931   -0.36     68.67   
   285. D(B   8,B  11,B   5,B   9)     -3.94  0.001110   -0.18     -4.12   
   286. D(B   8,B  11,B   5,B  10)     -7.79  0.005321   -0.54     -8.33   
   287. D(B   8,B  11,B   5,B   7)    -51.78  0.006344   -0.73    -52.51   
    ----------------------------------------------------------------------------

Geometry step timings:
Preparation and reading OPT file:      0.000 s ( 0.116 %)
Internal coordinates            :      0.000 s ( 0.289 %)
B/P matrices and projection     :      0.008 s (22.863 %)
Hessian update/contruction      :      0.006 s (17.384 %)
[...]
    14. B(B  10,B   2)                1.7193 -0.000151  0.0015    1.7209   
    15. B(B  10,B   1)                1.7138  0.000023 -0.0002    1.7135   
    16. B(B  10,B   8)                1.6950 -0.000196  0.0003    1.6953   
    17. B(B  10,B   7)                1.9915  0.000062 -0.0030    1.9884   
    18. B(B  10,B   5)                2.1568 -0.000054  0.0017    2.1585   
    19. B(B  11,B  10)                1.8440  0.000057 -0.0009    1.8431   
    20. B(B  11,B   8)                1.5219  0.000110 -0.0001    1.5218   
    21. B(B  11,B   5)                1.5362 -0.000062  0.0001    1.5363   
    22. A(B   6,B   0,B   9)          100.37  0.000072   -0.11    100.26   
    23. A(B   4,B   0,B   9)           62.98  0.000011    0.01     62.99   
    24. A(B   4,B   0,B   6)          129.05  0.000060   -0.14    128.91   
    25. A(B   7,B   1,B  10)           75.52  0.000057   -0.14     75.38   
    26. A(B   7,B   1,B   9)          115.53  0.000005   -0.07    115.45   
    27. A(B   9,B   1,B  10)          101.08 -0.000031   -0.02    101.05   
    28. A(B   8,B   2,B  10)           62.76 -0.000007   -0.03     62.73   
    29. A(B   6,B   2,B   8)          145.87  0.000075    0.10    145.97   
    30. A(B   6,B   2,B  10)          106.10  0.000087   -0.03    106.07   
    31. A(B   5,B   3,B   7)           52.76 -0.000002    0.01     52.77   
    32. A(B   7,B   3,B   9)           89.61 -0.000032   -0.12     89.49   
    33. A(B   4,B   3,B   5)          145.36 -0.000016    0.05    145.42   
    34. A(B   4,B   3,B   7)          147.62  0.000034   -0.16    147.46   
    35. A(B   4,B   3,B   9)           58.23  0.000066   -0.03     58.20   
    36. A(B   5,B   3,B   9)          129.39 -0.000036   -0.05    129.34   
    37. A(B   3,B   4,B   9)           70.97 -0.000011    0.06     71.03   
    38. A(B   0,B   4,B   9)           62.50 -0.000084    0.02     62.52   
    39. A(B   0,B   4,B   3)          118.58 -0.000093    0.13    118.71   
    40. A(B   3,B   5,B  10)           77.83  0.000044    0.01     77.83   
    41. A(B  10,B   5,B  11)           56.98  0.000038   -0.08     56.90   
    42. A(B   7,B   5,B  11)          112.57  0.000066   -0.27    112.30   
    43. A(B   3,B   5,B  11)          119.83  0.000055   -0.01    119.82   
    44. A(B   7,B   5,B  10)           62.34  0.000039   -0.17     62.17   
    45. A(B   3,B   5,B   7)           69.11  0.000029    0.04     69.16   
    46. A(B   0,B   6,B   2)          131.54 -0.000138    0.11    131.64   
    47. A(B   1,B   7,B   3)           77.54  0.000028    0.11     77.66   
    48. A(B   3,B   7,B   5)           58.13 -0.000028   -0.05     58.08   
    49. A(B   1,B   7,B   5)          118.36 -0.000015    0.16    118.52   
    50. A(B   5,B   7,B  10)           73.58 -0.000031    0.15     73.73   
    51. A(B   3,B   7,B  10)           78.82 -0.000003    0.10     78.92   
    52. A(B   1,B   7,B  10)           56.43  0.000008    0.06     56.49   
    53. A(B  10,B   8,B  11)           69.71  0.000050   -0.04     69.67   
    54. A(B   2,B   8,B  11)          122.85  0.000073   -0.07    122.78   
    55. A(B   2,B   8,B  10)           64.41  0.000023    0.05     64.46   
    56. A(B   0,B   9,B   1)          135.23 -0.000059    0.12    135.35   
    57. A(B   3,B   9,B   4)           50.79 -0.000055   -0.03     50.77   
    58. A(B   1,B   9,B   4)          125.47 -0.000058    0.09    125.56   
    59. A(B   0,B   9,B   4)           54.51  0.000073   -0.03     54.49   
    60. A(B   1,B   9,B   3)           75.84 -0.000005    0.11     75.95   
    61. A(B   0,B   9,B   3)           96.10 -0.000001    0.00     96.10   
    62. A(B   1,B  10,B   2)          121.32  0.000049   -0.05    121.27   
    63. A(B   8,B  10,B  11)           50.73  0.000050    0.01     50.73   
    64. A(B   7,B  10,B  11)           84.42 -0.000020   -0.04     84.37   
    65. A(B   5,B  10,B  11)           44.31 -0.000013   -0.02     44.29   
    66. A(B   2,B  10,B  11)           97.03  0.000039   -0.06     96.97   
    67. A(B   1,B  10,B  11)          130.10 -0.000077    0.04    130.14   
    68. A(B   7,B  10,B   8)          134.83  0.000031   -0.04    134.79   
    69. A(B   5,B  10,B   8)           93.92  0.000034   -0.02     93.90   
    70. A(B   2,B  10,B   8)           52.83 -0.000016   -0.02     52.81   
    71. A(B   5,B  10,B   7)           44.08 -0.000008    0.02     44.10   
    72. A(B   1,B  10,B   7)           48.05 -0.000064    0.08     48.13   
    73. A(B   2,B  10,B   5)          126.58  0.000029   -0.15    126.43   
    74. A(B   1,B  10,B   5)           85.91 -0.000062    0.08     85.99   
    75. A(B   8,B  11,B  10)           59.56 -0.000100    0.04     59.60   
    76. A(B   5,B  11,B  10)           78.72 -0.000025    0.10     78.81   
    77. A(B   5,B  11,B   8)          135.74 -0.000122    0.10    135.84   
    78. D(B   9,B   4,B   0,B   6)     81.18  0.000074   -0.06     81.12   
    79. D(B   0,B   4,B   3,B   7)     34.43 -0.000036   -0.10     34.33   
    80. D(B   0,B   4,B   3,B   5)    -72.70 -0.000065    0.09    -72.61   
    81. D(B   0,B   4,B   3,B   9)     41.93 -0.000043   -0.04     41.89   
    82. D(B   9,B   4,B   3,B   5)   -114.63 -0.000023    0.14   -114.49   
    83. D(B   9,B   4,B   3,B   7)     -7.50  0.000007   -0.06     -7.56   
    84. D(B   3,B   4,B   0,B   9)    -45.41  0.000007    0.04    -45.37   
    85. D(B   3,B   4,B   0,B   6)     35.77  0.000081   -0.02     35.75   
    86. D(B  10,B   5,B   3,B   7)    -64.78 -0.000026    0.19    -64.59   
    87. D(B  10,B   5,B   3,B   9)    -14.22 -0.000037    0.02    -14.20   
    88. D(B   7,B   5,B   3,B   4)    139.99  0.000052   -0.27    139.73   
    89. D(B   7,B   5,B   3,B   9)     50.56 -0.000011   -0.17     50.39   
    90. D(B  11,B   5,B   3,B   4)     35.23 -0.000026    0.03     35.26   
    91. D(B  10,B   5,B   3,B   4)     75.21  0.000026   -0.08     75.13   
    92. D(B   2,B   6,B   0,B   4)    -16.57 -0.000016    0.00    -16.57   
    93. D(B   0,B   6,B   2,B  10)    -25.48 -0.000047   -0.07    -25.55   
    94. D(B   0,B   6,B   2,B   8)     39.48  0.000042   -0.22     39.27   
    95. D(B   2,B   6,B   0,B   9)     46.93  0.000044   -0.05     46.88   
    96. D(B   1,B   7,B   3,B   4)     -1.73 -0.000013    0.13     -1.60   
    97. D(B   5,B   7,B   2,B   6)    101.89  0.000049   -0.04    101.85   
    98. D(B   3,B   7,B   1,B   9)     10.80  0.000013   -0.10     10.70   
    99. D(B   3,B   7,B   1,B  10)    -84.74  0.000023   -0.04    -84.78   
   100. D(B   3,B   7,B   2,B   6)     39.69  0.000076    0.05     39.74   
   101. D(B   5,B   7,B   2,B   8)    -46.75  0.000012   -0.18    -46.94   
   102. D(B   5,B   7,B   1,B  10)    -41.94  0.000025   -0.15    -42.09   
   103. D(B   1,B   7,B   5,B  10)     35.49 -0.000010    0.10     35.59   
   104. D(B   1,B   7,B   2,B   6)    -50.13  0.000048   -0.03    -50.16   
   105. D(B   1,B   7,B   3,B   5)    135.25 -0.000028    0.16    135.41   
   106. D(B   3,B   7,B   5,B  11)    114.70  0.000054    0.04    114.74   
   107. D(B   3,B   7,B   5,B  10)     86.86  0.000023    0.03     86.89   
   108. D(B  10,B   7,B   1,B   9)     95.54 -0.000010   -0.06     95.48   
   109. D(B   5,B   7,B   3,B   4)   -136.98  0.000015   -0.03   -137.01   
   110. D(B   1,B   7,B   5,B   3)    -51.37 -0.000033    0.07    -51.30   
   111. D(B  10,B   7,B   3,B   5)     77.50 -0.000034    0.13     77.63   
   112. D(B  10,B   7,B   3,B   4)    -59.48 -0.000019    0.10    -59.38   
   113. D(B   5,B   7,B   3,B   9)   -143.35  0.000016   -0.07   -143.42   
   114. D(B   3,B   7,B   2,B   8)   -108.95  0.000040   -0.10   -109.05   
   115. D(B   1,B   7,B   5,B  11)     63.33  0.000021    0.11     63.45   
   116. D(B  10,B   7,B   5,B   3)    -86.86 -0.000023   -0.03    -86.89   
   117. D(B   1,B   7,B   3,B   9)     -8.10 -0.000012    0.08     -8.02   
   118. D(B   5,B   7,B   1,B   9)     53.60  0.000016   -0.20     53.40   
   119. D(B  10,B   7,B   5,B  11)     27.84  0.000031    0.01     27.85   
   120. D(B   1,B   7,B   2,B   8)    161.23  0.000011   -0.17    161.05   
   121. D(B  10,B   8,B   2,B   6)    -78.26 -0.000097    0.20    -78.06   
   122. D(B  11,B   8,B   1,B   7)     14.63 -0.000010   -0.04     14.60   
   123. D(B   2,B   8,B   1,B   7)    162.51  0.000014   -0.18    162.33   
   124. D(B   2,B   8,B   1,B   9)     47.85  0.000004   -0.09     47.76   
   125. D(B  11,B   8,B   2,B   6)    -38.34 -0.000074    0.29    -38.04   
   126. D(B  11,B   8,B   1,B   9)   -100.03 -0.000020    0.05    -99.98   
   127. D(B  11,B   8,B   2,B  10)     39.92  0.000023    0.10     40.02   
   128. D(B   0,B   9,B   3,B   4)    -32.80 -0.000064    0.10    -32.70   
   129. D(B   4,B   9,B   1,B   7)    -22.10  0.000005    0.11    -21.99   
   130. D(B   3,B   9,B   1,B   7)    -10.68 -0.000016    0.10    -10.58   
   131. D(B   0,B   9,B   1,B  10)    -15.90  0.000020   -0.13    -16.03   
   132. D(B   0,B   9,B   1,B   7)    -95.01 -0.000030    0.03    -94.98   
   133. D(B   4,B   9,B   0,B   6)   -128.73 -0.000030    0.11   -128.62   
   134. D(B   3,B   9,B   1,B  10)     68.43  0.000034   -0.06     68.38   
   135. D(B   3,B   9,B   0,B   6)    -97.70 -0.000030    0.02    -97.68   
   136. D(B   1,B   9,B   0,B   6)    -21.68 -0.000029    0.16    -21.52   
   137. D(B   4,B   9,B   1,B  10)     57.01  0.000055   -0.04     56.96   
   138. D(B   3,B   9,B   0,B   4)     31.03  0.000001   -0.09     30.94   
   139. D(B   0,B   9,B   3,B   5)    105.25 -0.000049    0.14    105.40   
   140. D(B   1,B   9,B   0,B   4)    107.05  0.000001    0.05    107.10   
   141. D(B   1,B   9,B   4,B   3)     14.35 -0.000015    0.00     14.35   
   142. D(B   1,B   9,B   4,B   0)   -124.24  0.000026   -0.11   -124.35   
   143. D(B   0,B   9,B   4,B   3)    138.59 -0.000041    0.12    138.70   
   144. D(B   1,B   9,B   3,B   7)      8.01  0.000004   -0.08      7.93   
   145. D(B   1,B   9,B   3,B   5)    -29.93  0.000011    0.03    -29.91   
   146. D(B   1,B   9,B   3,B   4)   -167.98 -0.000004   -0.02   -168.00   
   147. D(B   3,B   9,B   4,B   0)   -138.59  0.000041   -0.12   -138.70   
   148. D(B   0,B   9,B   3,B   7)    143.19 -0.000056    0.04    143.23   
   149. D(B  11,B  10,B   8,B   2)    144.92  0.000027   -0.12    144.80   
   150. D(B   7,B  10,B   8,B   2)    152.95  0.000009   -0.12    152.83   
   151. D(B   5,B  10,B   8,B  11)    -10.69 -0.000009   -0.05    -10.74   
   152. D(B   5,B  10,B   8,B   2)    134.23  0.000018   -0.17    134.06   
   153. D(B  11,B  10,B   7,B   3)    -80.97  0.000028    0.02    -80.95   
   154. D(B  11,B  10,B   7,B   1)   -163.34 -0.000007   -0.05   -163.40   
   155. D(B   8,B  10,B   7,B   5)    -27.40  0.000011   -0.07    -27.47   
   156. D(B   8,B  10,B   7,B   3)    -87.21  0.000037    0.02    -87.19   
   157. D(B   8,B  10,B   7,B   1)   -169.58  0.000002   -0.05   -169.64   
   158. D(B   5,B  10,B   7,B   3)    -59.81  0.000027    0.09    -59.72   
   159. D(B   5,B  10,B   7,B   1)   -142.18 -0.000009    0.02   -142.16   
   160. D(B   1,B  10,B   7,B   3)     82.37  0.000035    0.07     82.44   
   161. D(B   7,B  10,B   5,B  11)   -149.04  0.000004    0.12   -148.92   
   162. D(B   7,B  10,B   5,B   3)     72.62  0.000010    0.07     72.69   
   163. D(B   2,B  10,B   5,B  11)     57.18  0.000013    0.10     57.28   
   164. D(B   2,B  10,B   5,B   7)   -153.78  0.000009   -0.02   -153.80   
   165. D(B   2,B  10,B   5,B   3)    -81.16  0.000019    0.05    -81.11   
   166. D(B   1,B  10,B   5,B  11)   -176.25  0.000037    0.07   -176.18   
   167. D(B   1,B  10,B   5,B   7)    -27.21  0.000033   -0.05    -27.26   
   168. D(B   1,B  10,B   5,B   3)     45.41  0.000043    0.02     45.43   
   169. D(B  11,B  10,B   2,B   8)    -26.64 -0.000004   -0.08    -26.72   
   170. D(B  11,B  10,B   2,B   6)    118.49  0.000042    0.05    118.54   
   171. D(B   1,B  10,B   7,B   5)    142.18  0.000009   -0.02    142.16   
   172. D(B   8,B  10,B   2,B   6)    145.12  0.000046    0.14    145.26   
   173. D(B   5,B  10,B   2,B   8)    -62.89 -0.000004   -0.11    -63.01   
   174. D(B   5,B  10,B   2,B   6)     82.23  0.000042    0.02     82.25   
   175. D(B   1,B  10,B   2,B   8)   -173.22  0.000016   -0.09   -173.32   
   176. D(B   1,B  10,B   2,B   6)    -28.10  0.000062    0.04    -28.06   
   177. D(B  11,B  10,B   1,B   9)    -91.87 -0.000053    0.01    -91.85   
   178. D(B  11,B  10,B   1,B   7)     21.90 -0.000036   -0.07     21.83   
   179. D(B   2,B  10,B   8,B  11)   -144.92 -0.000027    0.12   -144.80   
   180. D(B   7,B  10,B   1,B   9)   -113.76 -0.000017    0.08   -113.68   
   181. D(B   5,B  10,B   1,B   9)    -88.45 -0.000024    0.10    -88.34   
   182. D(B   5,B  10,B   1,B   7)     25.32 -0.000007    0.02     25.34   
   183. D(B   7,B  10,B   8,B  11)      8.03 -0.000018   -0.00      8.03   
   184. D(B   2,B  10,B   1,B   9)     42.53 -0.000012   -0.00     42.53   
   185. D(B   2,B  10,B   1,B   7)    156.30  0.000005   -0.08    156.21   
   186. D(B   8,B  11,B  10,B   2)     27.48 -0.000024    0.08     27.56   
   187. D(B   8,B  11,B  10,B   1)    169.53  0.000027    0.05    169.58   
   188. D(B   5,B  11,B  10,B   8)   -164.64  0.000016    0.08   -164.56   
   189. D(B   5,B  11,B  10,B   2)   -137.16 -0.000008    0.15   -137.00   
   190. D(B   5,B  11,B  10,B   1)      4.89  0.000043    0.12      5.01   
   191. D(B  10,B  11,B   8,B   2)    -38.10 -0.000015   -0.12    -38.22   
   192. D(B   5,B  11,B   8,B  10)     21.85 -0.000029    0.16     22.01   
   193. D(B   5,B  11,B   8,B   2)    -16.25 -0.000044    0.04    -16.21   
   194. D(B  10,B  11,B   5,B   7)    -29.56 -0.000031    0.02    -29.54   
   195. D(B   5,B  11,B  10,B   7)     21.07  0.000000    0.09     21.16   
   196. D(B  10,B  11,B   5,B   3)     48.51  0.000053   -0.08     48.43   
   197. D(B   8,B  11,B   5,B  10)    -19.10  0.000043   -0.14    -19.24   
   198. D(B   8,B  11,B   5,B   7)    -48.66  0.000012   -0.13    -48.79   
   199. D(B   8,B  11,B  10,B   5)    164.64 -0.000016   -0.08    164.56   
   200. D(B   8,B  11,B   5,B   3)     29.41  0.000096   -0.22     29.18   
    ----------------------------------------------------------------------------

Geometry step timings:
Preparation and reading OPT file:      0.000 s ( 0.341 %)
Internal coordinates            :      0.000 s ( 0.541 %)
B/P matrices and projection     :      0.003 s (26.611 %)
Hessian update/contruction      :      0.002 s (20.216 %)
Making the step                 :      0.004 s (34.852 %)
Converting the step to Cartesian:      0.000 s ( 2.462 %)
Storing new data                :      0.000 s ( 0.707 %)
Checking convergence            :      0.000 s ( 0.790 %)
Final printing                  :      0.002 s (13.480 %)
Total time                      :      0.012 s

Time for energy+gradient        :      0.057 s
Time for complete geometry iter :      0.070 s




    ----------------------------------------------------------------------------
                                  WARNING !!!
       The optimization did not converge but reached the maximum number of
       optimization cycles.
       Please check your results very carefully.
    ----------------------------------------------------------------------------



--------------------------------
SUGGESTED CITATIONS FOR THIS RUN
--------------------------------

Below you find a list of papers that are relevant to this ORCA run
We neither can nor want to force you to cite these papers, but we appreciate if you do
You receive ORCA, which is the product of decades of hard work by many enthusiastic individuals, for free
The only thing we kindly ask in return is that you cite our papers,
We deeply appreciate it, if you show your appreciation for ORCA by not just citing the generic ORCA reference.

Please note that relegating all ORCA citations to the supporting information does *not* help us.
SI sections are not indexed - citations you put there will not count into any citation statistics
But we need these citations in order to attract the funding resources that allow us to do what we are doing

Therefore, if you are a happy ORCA user, please consider citing a few of the papers listed below in the main body of your paper

In addition to the list printed below, the program has created the file random_d1.70_008_m1.bibtex that contains the list in bibtex format
You can import this file easily into all common literature databanks and citation aid programs

It goes without saying that in many instances, there are alternative algorithms to achieve similar
results as the ones you have gotten from ORCA. It is, of course, also the case that in some instances
ORCA just re-implements algorithms worked out by others. We are fully aware of that and we are also
fully appreciative of our colleagues work. Hence this citation list should not be read as indicating
that the listed papers, which are focused on our own work, are the only ones worth citing. It simply
meant to make it easier for users to cite ORCA specific papers. It is not a substitute for doing your
own literature research and citing the relevant literature in a scientifically appropriate manner.

List of essential papers. We consider these as the minimum necessary citations

  1. Bannwarth, C.; Ehlert, S.; Grimme, S.
     GFN2-xTB—An Accurate and Broadly Parametrized Self-Consistent Tight-Binding Quantum Chemical Method with Multipole Electrostatics and Density-Dependent Dispersion Contributions
     J. Chem. Theory Comput. 2019 15(3), 1652-1671
     doi.org/10.1021/acs.jctc.8b01176
  2. Neese, F.
     Software update: the ORCA program system, version 6.0
     WIRES Comput. Molec. Sci. 2025 15(1), e70019
     doi.org/10.1002/wcms.70019

List of papers to cite with high priority. The work reported in these papers was absolutely
necessary for this run to complete.
Our perspective: the developers of density functionals and basis sets usually get cited in chemistry papers
Good! But without the algorithms to do something with them, the functionals or basis sets would not do anything.
Hence, in our opinion, the algorithm design and method developments papers are equally worthy of getting cited

  1. Bannwarth, C.; Caldeweyher, E.; Ehlert, S.; Hansen, A.; Pracht, P.; Seibert, J.; Spicher, S.; Grimme, S.
     Extended tight-binding quantum chemistry methods
     WIRES Comput. Molec. Sci. 2020 11(2), e1493
     doi.org/10.1002/wcms.1493

List of suggested additional citations. These are papers that are important in the 'surrounding' of 
of this run, or papers that preceded the highly important papers. If you like your results we are grateful for a citation.

  1. Neese, F.
     The ORCA program system
     WIRES Comput. Molec. Sci. 2012 2(1), 73-78
     doi.org/10.1002/wcms.81
  2. Neese, F.
     Software update: the ORCA program system, version 4.0
     WIRES Comput. Molec. Sci. 2018 8(1), 1-6
     doi.org/10.1002/wcms.1327
  3. Neese, F.; Wennmohs, F.; Becker, U.; Riplinger, C.
     The ORCA quantum chemistry program package
     J. Chem. Phys. 2020 152(22), 224108
     doi.org/10.1063/5.0004608
  4. Neese, F.
     Software update: The ORCA program system—Version 5.0
     WIRES Comput. Molec. Sci. 2022 12(1), e1606
     doi.org/10.1002/wcms.1606

List of optional additional citations

  1. Neese, F.
     Approximate second-order SCF convergence for spin unrestricted wavefunctions
     Chem. Phys. Lett. 2000 325(1-3), 93-98
     doi.org/10.1016/s0009-2614(00)00662-x

Timings for individual modules:

Sum of individual times          ...        4.147 sec (=   0.069 min)
Geometry relaxation              ...        1.422 sec (=   0.024 min)  34.3 %
XTB module                       ...        2.724 sec (=   0.045 min)  65.7 %
                             ****ORCA TERMINATED NORMALLY****
TOTAL RUN TIME: 0 days 0 hours 0 minutes 4 seconds 634 msec
