
                                 *****************
                                 * O   R   C   A *
                                 *****************

                                            #,                                       
                                            ###                                      
                                            ####                                     
                                            #####                                    
                                            ######                                   
                                           ########,                                 
                                     ,,################,,,,,                         
                               ,,#################################,,                 
                          ,,##########################################,,             
                       ,#########################################, ''#####,          
                    ,#############################################,,   '####,        
                  ,##################################################,,,,####,       
                ,###########''''           ''''###############################       
              ,#####''   ,,,,##########,,,,          '''####'''          '####       
            ,##' ,,,,###########################,,,                        '##       
           ' ,,###''''                  '''############,,,                           
         ,,##''                                '''############,,,,        ,,,,,,###''
      ,#''                                            '''#######################'''  
     '                                                          ''''####''''         
             ,#######,   #######,   ,#######,      ##                                
            ,#'     '#,  ##    ##  ,#'     '#,    #''#        ,####,    ,#,          
            ##       ##  ##   ,#'  ##            #'  '#       #'       ,# #          
            ##       ##  #######   ##           ,######,      #####,      #          
            '#,     ,#'  ##    ##  '#,     ,#' ,#      #,     #,   #      #          
             '#######'   ##     ##  '#######'  #'      '#     '####' #    #          



                #########################################################
                #                        -***-                          #
                #          Department of theory and spectroscopy        #
                #                                                       #
                #                      Frank Neese                      #
                #                                                       #
                #     Directorship, Architecture, Infrastructure        #
                #                    SHARK, DRIVERS                     #
                #        Core code/Algorithms in most modules           #
                #                                                       #
                #        Max Planck Institute fuer Kohlenforschung      #
                #                Kaiser Wilhelm Platz 1                 #
                #                 D-45470 Muelheim/Ruhr                 #
                #                      Germany                          #
                #                                                       #
                #                  All rights reserved                  #
                #                        -***-                          #
                #########################################################


                         Program Version 6.1.1  -  RELEASE   -
                                (GIT: $487d211c$)
                          ($2025-11-21 10:33:24 +0100$)
                                                                         
                                  - NO-DMRG VERSION -                    
                                                                         


 With contributions from (in alphabetic order):
[Max-Planck-Institut fuer Kohlenforschung]                               
  Daniel Aravena         : Magnetic Suceptibility                        
  Michael Atanasov       : Ab Initio Ligand Field Theory (pilot matlab implementation)
  Alexander A. Auer      : GIAO ZORA, VPT2 properties, NMR spectrum      
  Ute Becker             : All parallelization in ORCA, NUMFREQ, NUMCALC 
  Giovanni Bistoni       : ED, misc. LED, open-shell LED, HFLD           
  Dmytro Bykov           : pre 5.0 version of the SCF Hessian            
  Marcos Casanova-Páez   : Triplet and SCS-CIS(D). UHF-(DLPNO)-IP/EA/STEOM-CCSD. UHF-CVS-IP/STEOM-CCSD   
  Vijay G. Chilkuri      : MRCI spin determinant printing, contributions to CSF-ICE 
  Pauline Colinet        : FMM embedding                                 
  Dipayan Datta          : RHF DLPNO-CCSD density                        
  Achintya Kumar Dutta   : EOM-CC, STEOM-CC                              
  Nicolas Foglia         : Exact transition moments, OPA infrastructure, MCD improvements    
  Dmitry Ganyushin       : Spin-Orbit,Spin-Spin,Magnetic field MRCI      
  Miquel Garcia-Rates    : C-PCM and meta-GGA Hessian, CCSD/C-PCM, Gaussian charge scheme 
  Tiago L. C. Gouveia    : GS-ROHF, GS-ROCIS                             
  Yang Guo               : DLPNO-NEVPT2, F12-NEVPT2, CIM, IAO-localization        
  Andreas Hansen         : Spin unrestricted coupled pair/coupled cluster methods 
  Ingolf Harden          : AUTO-CI MPn and infrastructure                
  Benjamin Helmich-Paris : MC-RPA, TRAH-(SCF,CASSCF), AVAS, COSX integrals, SCF dyn. polar., MC-PDFT, srDFT 
  Lee Huntington         : MR-EOM, pCC                                   
  Robert Izsak           : Overlap fitted RIJCOSX, COSX-SCS-MP3, EOM     
  Riya Kayal             : Wick's Theorem for AUTO-CI, AUTO-CI UHF-CCSDT 
  Emily Kempfer          : AUTO-CI RHF CISDT and CCSDT, approximate NEVPT4
  Christian Kollmar      : KDIIS, OOCD, Brueckner-CCSD(T), CCSD density, CASPT2, CASPT2-K, improved NEVPT2 
  Axel Koslowski         : Symmetry handling                             
  Simone Kossmann        : meta-GGA functionals, TD-DFT gradient, OOMP2, (MP2 Hessian; deprecated post 5.0) 
  Lucas Lang             : DCDCAS, Hyperfine gauge corrections, ICE-SOC+SSC
  Marvin Lechner         : AUTO-CI (C++ implementation), FIC-MRCC        
  Spencer Leger          : CASSCF response                               
  Dagmar Lenk            : GEPOL surface, SMD, ORCA-2-JSON               
  Dimitrios Liakos       : Extrapolation schemes; Compound Job, Property file
  Dimitrios Manganas     : Further ROCIS development; embedding schemes. LFT, Crystal Embedding 
  Dimitrios Pantazis     : SARC Basis sets                               
  Anastasios Papadopoulos: AUTO-CI, single reference methods and gradients 
  Taras Petrenko         : pre 6.0 DFT Hessian and TD-DFT gradient,  ECA, NRVS 
  Petra Pikulova         : Analytic Raman intensities                    
  Peter Pinski           : DLPNO-MP2, DLPNO-MP2 Gradient                 
  Shashank Vittal Rao    : ES-AILFT, MagRelax                            
  Christoph Reimann      : Effective Core Potentials                     
  Marius Retegan         : Local ZFS, SOC                                
  Christoph Riplinger    : Optimizer, TS searches, QM/MM, DLPNO-CCSD(T), (RO)-DLPNO pert. Triples 
  Michael Roemelt        : Original ROCIS implementation, recursive CI coupling coefficients
  Masaaki Saitow         : Open-shell DLPNO-CCSD energy and density      
  Barbara Sandhoefer     : DKH picture change effects                    
  Yorick L. A. Schmerwitz: GMF and freeze-and-release deltaSCF, NEB S-IDPP initial path                    
  Kantharuban Sivalingam : CASSCF convergence/infrastructure, NEVPT2, NEVPT3, NEVPT4(SD), FIC-MRCI and CEPA variants
  Bernardo de Souza      : ESD, SOC TD-DFT                               
  Georgi L. Stoychev     : AutoAux, RI-MP2 NMR, DLPNO-MP2 response, X2C  
  Van Anh Tran           : RI-MP2 g-tensors                              
  Willem Van den Heuvel  : Paramagnetic NMR                              
  Zikuan Wang            : NOTCH, Electric field optimization            
  Frank Wennmohs         : Technical directorship and infrastructure     
  Hang Xu                : AUTO-CI-Response properties                   
                                                                         
[FACCTs GmbH]                                                            
  Markus Bursch, Nicolas Foglia, Miquel Garcia-Rates, Ingolf Harden, Hagen Neugebauer, Anastasios Papadopoulos, 
  Christoph Riplinger, Bernardo de Souza, Georgi L. Stoychev                                                    
                                                                 
  APM, various basis sets, CI-OPT, improved COSX, DLPNO-Multilevel,           
  DOCKER, DRACO, updates on ESD, Fragmentator, GOAT, IRC, LR-CPCM, L-BFGS, MBIS, meta-GGA TD-DFT gradient, ML-optimized integration grids, 
  MM, NACMEs, nearIR, NEB, NEB-TS, NL-DFT gradient (VV10), 2- and 3-layer-ONIOM, interface openCOSMO-RS, QMMM,   
  Crystal-QMMM, RESP, rigid body optimization, SF, symmetry and pop. for TD-DFT, various functionals, SOLVATOR                                   
                                                                         
[Other institutions]                                                     
  V. Asgeirsson          : NEB                                           
  Christoph Bannwarth    : sTDA-DFT, sTD-DFT, PBEh-3c, B97-3c, D3        
  Giovanni Bistoni       : ETS/NOCV, ADLD/ADEX, COVALED                  
  Martin Brehm           : Molecular dynamics                            
  Ronald Cardenas        : ETS/NOCV                                      
  Martina Colucci        : COVALED                                       
  Sebastian Ehlert       : rSCAN, r2SCAN, r2SCAN-3c, D4, dhf basis sets  
  Marvin Friede          : D4 for Fr, Ra, Ac-Lr                          
  Lars Goerigk           : TD-DFT with DH, B97 family of functionals     
  Stefan Grimme          : VdW corrections, initial TS optimization, DFT functionals, gCP, sTDA/sTD-DF 
  Waldemar Hujo          : DFT-NL                                        
  H. Jonsson             : NEB                                           
  Holger Kruse           : gCP                                           
  Marcel Mueller         : wB97X-3c, vDZP basis set                      
  Hagen Neugebauer       : wr2SCAN, Native XTB                           
  Gianluca Regni         : ADLD/ADEX                                     
  Tobias Risthaus        : pre 6.0 range-separated hybrid DFT and stability analysis
  Lukas Wittmann         : regularized MP2, r2SCAN double-hybrids, wr2SCAN        
                                                                         
We gratefully acknowledge several colleagues who have allowed us to      
interface, adapt or use parts of their codes:                            
  Ed Valeev, F. Pavosevic, A. Kumar             : LibInt (2-el integral package), F12 methods 
  Garnet Chan, S. Sharma, J. Yang, R. Olivares  : DMRG                   
  Ulf Ekstrom                                   : XCFun DFT Library      
  Mihaly Kallay                                 : mrcc  (arbitrary order and MRCC methods)
  Frank Weinhold                                : gennbo (NPA and NBO analysis)           
  Simon Mueller                                 : openCOSMO-RS                            
  Christopher J. Cramer and Donald G. Truhlar   : smd solvation model                     
  S Lehtola, MJT Oliveira, MAL Marques          : LibXC Library                           
  Liviu Ungur et al                             : ANISO software                          


 Your calculation uses the libint2 library for the computation of 2-el integrals
 For citations please refer to: http://libint.valeyev.net

 Your ORCA version has been built with support for libXC version: 7.0.0
 For citations please refer to: https://libxc.gitlab.io

 This ORCA versions uses:
   CBLAS   interface :  Fast vector & matrix operations
   LAPACKE interface :  Fast linear algebra routines
   SCALAPACK package :  Parallel linear algebra routines
   Shared memory     :  Shared parallel matrices
   BLAS/LAPACK       :  OpenBLAS 0.3.29  USE64BITINT DYNAMIC_ARCH NO_AFFINITY Zen SINGLE_THREADED
        Core in use  :  Zen
   Copyright (c) 2011-2014, The OpenBLAS Project


  ***********************************
  * Starting time: Fri Apr 17 12:14:16 2026
  * Host name:     vmi3233575
  * Process ID:    333631
  * Working dir.:  /root/orca_b12_vps_pack/jobs/01_xtb/mult_1
  ***********************************

NOTE: MaxCore=500 MB was set to SCF,MP2,MDCI,CIPSI,MRCI,RASCI and CIS
      => If you want to overwrite this, your respective input block should be placed after the MaxCore statement


***************************************
The coordinates will be read from file: ../../../starts/random_d1.90_008.xyz
***************************************


Your calculation utilizes the semiempirical GFN2-xTB method
Please cite in your paper:
Bannwarth, C.; Ehlert S.; Grimme, S. J. Chem. Theory Comput. 2019, 15, 1652.
   

================================================================================

================================================================================
                                        WARNINGS
                       Please study these warnings very carefully!
================================================================================


WARNING: Geometry Optimization
  ===> : Switching off AutoStart
         For restart on a previous wavefunction, please use MOREAD

WARNING: Found dipole moment calculation with XTB calculation
  ===> : Switching off dipole moment calculation

Environment variable XTBEXE for xtb has been set!

================================================================================
                                       INPUT FILE
================================================================================
NAME = random_d1.90_008_m1.inp
|  1> ! GFN2-xTB TightSCF TightOpt
|  2> 
|  3> %pal
|  4>   nprocs 1
|  5> end
|  6> 
|  7> %maxcore 500
|  8> 
|  9> * xyzfile 0 1 ../../../starts/random_d1.90_008.xyz
| 10> 
| 11>                          ****END OF INPUT****
================================================================================

                       *****************************
                       * Geometry Optimization Run *
                       *****************************

Geometry optimization settings:
Update method            Update   .... BFGS
Choice of coordinates    CoordSys .... (2022) Redundant Internals
Initial Hessian          InHess   .... Almloef's Model
Max. no of cycles        MaxIter  .... 50

Convergence Tolerances:
Energy Change            TolE     ....  1.0000e-06 Eh
Max. Gradient            TolMAXG  ....  1.0000e-04 Eh/bohr
RMS Gradient             TolRMSG  ....  3.0000e-05 Eh/bohr
Max. Displacement        TolMAXD  ....  1.0000e-03 bohr
RMS Displacement         TolRMSD  ....  6.0000e-04 bohr
Strict Convergence                .... False

------------------------------------------------------------------------------
                        ORCA OPTIMIZATION COORDINATE SETUP
------------------------------------------------------------------------------

The optimization will be done in redundant internal coordinates (2022)
Making redundant internal coordinates   ...  (2022 redundants) done
Evaluating the initial hessian          ...  (Almloef) done
Evaluating the coordinates              ...  done
Calculating the B-matrix                .... done
Calculating the G-matrix                .... done
The number of degrees of freedom        ....  211

    -----------------------------------------------------------------
                    Redundant Internal Coordinates


    -----------------------------------------------------------------
         Definition                    Initial Value    Approx d2E/dq
    -----------------------------------------------------------------
      1. B(B   2,B   0)                  2.7361         0.010000   
      2. B(B   3,B   0)                  2.2876         0.030994   
      3. B(B   4,B   3)                  2.7886         0.010000   
      4. B(B   4,B   0)                  2.2152         0.040443   
      5. B(B   5,B   3)                  2.1596         0.049608   
      6. B(B   5,B   4)                  2.0210         0.082543   
      7. B(B   6,B   3)                  2.3600         0.023758   
      8. B(B   6,B   0)                  2.9362         0.010000   
      9. B(B   7,B   1)                  2.8067         0.010000   
     10. B(B   7,B   4)                  1.9052         0.126320   
     11. B(B   7,B   0)                  2.4067         0.020016   
     12. B(B   7,B   2)                  1.8845         0.136301   
     13. B(B   8,B   6)                  3.0041         0.010000   
     14. B(B   9,B   8)                  2.8047         0.010000   
     15. B(B   9,B   0)                  2.2076         0.041585   
     16. B(B   9,B   4)                  1.5489         0.467530   
     17. B(B  10,B   2)                  1.3672         0.911401   
     18. B(B  11,B   9)                  2.8232         0.010000   
     19. B(B  11,B   1)                  1.8986         0.129377   
     20. B(B  11,B   0)                  1.7205         0.248911   
     21. B(B  11,B   8)                  2.0305         0.079712   
     22. A(B   2,B   0,B   3)           73.4155         0.152890   
     23. A(B   7,B   0,B  11)          122.8668         0.223647   
     24. A(B   2,B   0,B  11)          148.0184         0.191380   
     25. A(B   3,B   0,B   7)          101.2221         0.173026   
     26. A(B   6,B   0,B   7)          131.8938         0.138001   
     27. A(B   4,B   0,B   9)           41.0006         0.194304   
     28. A(B   4,B   0,B   6)          128.3707         0.146457   
     29. A(B   2,B   0,B   9)          111.7236         0.157285   
     30. A(B   6,B   0,B  11)           98.0746         0.175691   
     31. A(B   2,B   0,B   4)           71.4980         0.156856   
     32. A(B   2,B   0,B   6)           89.5140         0.126258   
     33. A(B   2,B   0,B   7)           42.3877         0.146869   
     34. A(B   6,B   0,B   9)          120.6010         0.146821   
     35. A(B   4,B   0,B  11)          123.5297         0.246883   
     36. A(B   3,B   0,B  11)          134.5124         0.237655   
     37. A(B   7,B   0,B   9)           85.5953         0.178806   
     38. A(B   3,B   0,B   4)           76.5133         0.187527   
     39. A(B   3,B   0,B   9)           80.9852         0.188150   
     40. A(B   9,B   0,B  11)           91.0317         0.247881   
     41. A(B   3,B   0,B   6)           51.9231         0.143099   
     42. A(B   4,B   0,B   7)           48.4691         0.178242   
     43. A(B   7,B   1,B  11)           99.5274         0.172257   
     44. A(B   0,B   2,B  10)          147.2846         0.226338   
     45. A(B   0,B   2,B   7)           59.4238         0.178334   
     46. A(B   7,B   2,B  10)          129.1879         0.367832   
     47. A(B   0,B   3,B   6)           78.3439         0.176350   
     48. A(B   5,B   3,B   6)          154.5062         0.186162   
     49. A(B   0,B   3,B   4)           50.5747         0.150161   
     50. A(B   4,B   3,B   6)          128.8531         0.146588   
     51. A(B   4,B   3,B   5)           46.0722         0.157031   
     52. A(B   0,B   3,B   5)           92.3461         0.192189   
     53. A(B   0,B   4,B   9)           69.2371         0.271095   
     54. A(B   5,B   4,B   9)          115.9725         0.303006   
     55. A(B   0,B   4,B   3)           52.9120         0.153957   
     56. A(B   3,B   4,B   7)           99.5443         0.173058   
     57. A(B   0,B   4,B   7)           71.0235         0.224414   
     58. A(B   3,B   4,B   5)           50.3187         0.165340   
     59. A(B   0,B   4,B   5)           98.4134         0.211981   
     60. A(B   5,B   4,B   7)           98.1099         0.248144   
     61. A(B   3,B   4,B   9)           78.9778         0.202036   
     62. A(B   7,B   4,B   9)          130.3421         0.324641   
     63. A(B   3,B   5,B   4)           83.6092         0.217799   
     64. A(B   0,B   6,B   3)           49.7331         0.139940   
     65. A(B   0,B   6,B   8)           49.6118         0.118817   
     66. A(B   3,B   6,B   8)           69.7742         0.137142   
     67. A(B   1,B   7,B   4)           99.6132         0.171808   
     68. A(B   1,B   7,B   2)           99.4299         0.173245   
     69. A(B   0,B   7,B   4)           60.5074         0.204484   
     70. A(B   2,B   7,B   4)          100.9662         0.267275   
     71. A(B   0,B   7,B   1)           49.8466         0.143573   
     72. A(B   0,B   7,B   2)           78.1885         0.206489   
     73. A(B   6,B   8,B  11)           89.3098         0.152317   
     74. A(B   9,B   8,B  11)           69.3386         0.163734   
     75. A(B   6,B   8,B   9)          100.9567         0.122261   
     76. A(B   0,B   9,B   8)           58.2029         0.153500   
     77. A(B   4,B   9,B   8)          125.5336         0.200535   
     78. A(B   8,B   9,B  11)           42.2954         0.127660   
     79. A(B   0,B   9,B  11)           37.5405         0.152516   
     80. A(B   0,B   9,B   4)           69.7623         0.272246   
     81. A(B   4,B   9,B  11)          101.2619         0.198834   
     82. A(B   0,B  11,B   8)           82.8634         0.273091   
     83. A(B   0,B  11,B   1)           75.7608         0.294418   
     84. A(B   8,B  11,B   9)           68.3660         0.162594   
     85. A(B   1,B  11,B   9)          102.8413         0.171120   
     86. A(B   0,B  11,B   9)           51.4278         0.184230   
     87. A(B   1,B  11,B   8)          157.3117         0.247749   
     88. D(B   7,B   2,B   0,B  11)     76.4253         0.010000   
     89. D(B   7,B   2,B   0,B   3)   -128.8663         0.010000   
     90. D(B   7,B   2,B   0,B   6)   -179.0010         0.010000   
     91. D(B  10,B   2,B   0,B   4)   -163.8816         0.010000   
     92. D(B   7,B   2,B   0,B   4)    -47.8959         0.010000   
     93. D(B  10,B   2,B   0,B  11)    -39.5604         0.010000   
     94. D(B  10,B   2,B   0,B   9)   -171.9884         0.010000   
     95. D(B   7,B   2,B   0,B   9)    -56.0027         0.010000   
     96. D(B   5,B   3,B   0,B   2)     53.2270         0.010000   
     97. D(B   5,B   3,B   0,B   9)    -62.7669         0.010000   
     98. D(B   5,B   3,B   0,B   7)     20.8744         0.010000   
     99. D(B   4,B   3,B   0,B   9)    -41.6031         0.010000   
    100. D(B   5,B   3,B   0,B  11)   -145.2738         0.010000   
    101. D(B   4,B   3,B   0,B  11)   -124.1101         0.010000   
    102. D(B   4,B   3,B   0,B   7)     42.0381         0.010000   
    103. D(B   5,B   3,B   0,B   4)    -21.1637         0.010000   
    104. D(B   5,B   3,B   0,B   6)    156.0584         0.010000   
    105. D(B   7,B   4,B   0,B   2)     41.9234         0.010000   
    106. D(B   7,B   4,B   0,B   3)    118.6695         0.010000   
    107. D(B   5,B   4,B   3,B   0)   -149.9426         0.010000   
    108. D(B   7,B   4,B   3,B   0)    -57.2843         0.010000   
    109. D(B   7,B   4,B   3,B   5)     92.6583         0.010000   
    110. D(B   7,B   4,B   0,B  11)   -106.4253         0.010000   
    111. D(B   5,B   4,B   3,B   6)   -146.4483         0.010000   
    112. D(B   5,B   4,B   0,B   3)     22.9336         0.010000   
    113. D(B   5,B   4,B   0,B   2)    -53.8125         0.010000   
    114. D(B   7,B   4,B   0,B   9)   -149.5950         0.010000   
    115. D(B   5,B   4,B   0,B   6)     20.1446         0.010000   
    116. D(B   9,B   4,B   3,B   0)     72.2116         0.010000   
    117. D(B   5,B   4,B   0,B   7)    -95.7359         0.010000   
    118. D(B   5,B   4,B   0,B  11)    157.8388         0.010000   
    119. D(B   5,B   4,B   0,B   9)    114.6691         0.010000   
    120. D(B   9,B   4,B   3,B   5)   -137.8458         0.010000   
    121. D(B   7,B   4,B   3,B   6)    -53.7901         0.010000   
    122. D(B   3,B   5,B   4,B   0)    -23.8218         0.010000   
    123. D(B   3,B   5,B   4,B   9)     47.1177         0.010000   
    124. D(B   4,B   5,B   3,B   6)     90.2076         0.010000   
    125. D(B   3,B   5,B   4,B   7)    -95.7046         0.010000   
    126. D(B   4,B   5,B   3,B   0)     22.7817         0.010000   
    127. D(B   8,B   6,B   3,B   4)    -56.3926         0.010000   
    128. D(B   8,B   6,B   3,B   0)    -53.6373         0.010000   
    129. D(B   3,B   6,B   0,B   7)     68.2427         0.010000   
    130. D(B   0,B   6,B   3,B   4)     -2.7553         0.010000   
    131. D(B   0,B   6,B   3,B   5)    -70.3965         0.010000   
    132. D(B   8,B   6,B   0,B   9)     51.2205         0.010000   
    133. D(B   8,B   6,B   0,B  11)    -44.8085         0.010000   
    134. D(B   3,B   6,B   0,B   2)     69.1475         0.010000   
    135. D(B   8,B   6,B   0,B   4)    100.6708         0.010000   
    136. D(B   8,B   6,B   3,B   5)   -124.0338         0.010000   
    137. D(B   3,B   6,B   0,B   4)      3.4461         0.010000   
    138. D(B   3,B   6,B   0,B   9)    -46.0042         0.010000   
    139. D(B   3,B   6,B   0,B  11)   -142.0332         0.010000   
    140. D(B   2,B   7,B   1,B  11)     87.5968         0.010000   
    141. D(B   4,B   7,B   0,B   2)   -109.9717         0.010000   
    142. D(B   2,B   7,B   0,B   4)    109.9717         0.010000   
    143. D(B   2,B   7,B   0,B   6)      1.3421         0.010000   
    144. D(B   2,B   7,B   0,B   3)     49.5319         0.010000   
    145. D(B   4,B   7,B   0,B   9)     19.4525         0.010000   
    146. D(B   2,B   7,B   0,B   9)    129.4242         0.010000   
    147. D(B   2,B   7,B   0,B  11)   -142.1957         0.010000   
    148. D(B   4,B   7,B   0,B   3)    -60.4398         0.010000   
    149. D(B   4,B   7,B   1,B  11)    -15.3303         0.010000   
    150. D(B   4,B   7,B   0,B  11)    107.8326         0.010000   
    151. D(B   0,B   7,B   4,B   3)     45.2135         0.010000   
    152. D(B   0,B   7,B   4,B   5)     96.1588         0.010000   
    153. D(B   2,B   7,B   4,B   3)    -24.3521         0.010000   
    154. D(B   2,B   7,B   4,B   0)    -69.5655         0.010000   
    155. D(B   2,B   7,B   4,B   9)   -107.9469         0.010000   
    156. D(B   2,B   7,B   4,B   5)     26.5933         0.010000   
    157. D(B   1,B   7,B   2,B   0)    -45.3688         0.010000   
    158. D(B   1,B   7,B   2,B  10)     95.8161         0.010000   
    159. D(B   0,B   7,B   2,B  10)    141.1848         0.010000   
    160. D(B   4,B   7,B   2,B   0)     56.4381         0.010000   
    161. D(B   0,B   7,B   4,B   9)    -38.3814         0.010000   
    162. D(B   4,B   7,B   2,B  10)   -162.3770         0.010000   
    163. D(B   0,B   7,B   1,B  11)     21.9022         0.010000   
    164. D(B   9,B   8,B   6,B   0)    -32.5440         0.010000   
    165. D(B   9,B   8,B   6,B   3)     21.2335         0.010000   
    166. D(B  11,B   8,B   6,B   0)     36.2480         0.010000   
    167. D(B  11,B   8,B   6,B   3)     90.0255         0.010000   
    168. D(B  11,B   9,B   8,B   6)     85.0597         0.010000   
    169. D(B   0,B   9,B   8,B   6)     39.8813         0.010000   
    170. D(B   0,B   9,B   8,B  11)    -45.1783         0.010000   
    171. D(B   4,B   9,B   8,B   6)     20.4248         0.010000   
    172. D(B   4,B   9,B   8,B  11)    -64.6349         0.010000   
    173. D(B   8,B   9,B   4,B   3)    -36.7627         0.012640   
    174. D(B   8,B   9,B   4,B   7)     56.4590         0.012640   
    175. D(B   8,B   9,B   4,B   5)    -71.8294         0.012640   
    176. D(B   0,B   9,B   4,B   3)    -54.3241         0.012640   
    177. D(B   0,B   9,B   4,B   7)     38.8975         0.012640   
    178. D(B   0,B   9,B   4,B   5)    -89.3909         0.012640   
    179. D(B   8,B   9,B   0,B   2)   -151.4466         0.010000   
    180. D(B   8,B   9,B   0,B   7)    174.4585         0.010000   
    181. D(B   8,B   9,B   4,B   0)     17.5614         0.012640   
    182. D(B   8,B   9,B   0,B   4)   -163.2081         0.010000   
    183. D(B   8,B   9,B   0,B  11)     51.5707         0.010000   
    184. D(B   4,B   9,B   0,B   6)    114.7661         0.010000   
    185. D(B   4,B   9,B   0,B   3)     79.7802         0.010000   
    186. D(B   4,B   9,B   0,B   2)     11.7615         0.010000   
    187. D(B   4,B   9,B   0,B   7)    -22.3334         0.010000   
    188. D(B   4,B   9,B   0,B  11)   -145.2212         0.010000   
    189. D(B   8,B  11,B   9,B   4)    131.4304         0.010000   
    190. D(B   1,B  11,B   9,B   0)    -59.7037         0.010000   
    191. D(B   1,B  11,B   9,B   4)    -26.6309         0.010000   
    192. D(B   0,B  11,B   9,B   8)    -98.3576         0.010000   
    193. D(B   9,B  11,B   8,B   6)   -101.9870         0.010000   
    194. D(B   1,B  11,B   8,B   6)    -31.1837         0.010000   
    195. D(B   1,B  11,B   8,B   9)     70.8033         0.010000   
    196. D(B   0,B  11,B   8,B   6)    -50.7667         0.010000   
    197. D(B   0,B  11,B   8,B   9)     51.2202         0.010000   
    198. D(B   9,B  11,B   1,B   7)     19.8465         0.010000   
    199. D(B   8,B  11,B   1,B   7)    -44.3628         0.010000   
    200. D(B   0,B  11,B   1,B   7)    -24.2959         0.010000   
    201. D(B   8,B  11,B   0,B   7)   -153.3736         0.010000   
    202. D(B   8,B  11,B   0,B   4)    -94.6265         0.010000   
    203. D(B   8,B  11,B   0,B   9)    -67.9516         0.010000   
    204. D(B   1,B  11,B   0,B   6)   -119.1694         0.010000   
    205. D(B   0,B  11,B   9,B   4)     33.0727         0.010000   
    206. D(B   1,B  11,B   0,B   3)   -161.9442         0.010000   
    207. D(B   1,B  11,B   0,B   2)    -16.9870         0.010000   
    208. D(B   1,B  11,B   0,B   7)     34.2914         0.010000   
    209. D(B   1,B  11,B   9,B   8)   -158.0613         0.010000   
    210. D(B   1,B  11,B   0,B   4)     93.0384         0.010000   
    211. D(B   1,B  11,B   0,B   9)    119.7134         0.010000   
    -----------------------------------------------------------------

Number of atoms                         .... 12
Number of degrees of freedom            .... 211


         *************************************************************
         *                GEOMETRY OPTIMIZATION CYCLE   1            *
         *************************************************************
---------------------------------
CARTESIAN COORDINATES (ANGSTROEM)
---------------------------------
  B     0.147275    0.276060    0.630993
  B    -1.220079    1.699171    1.662091
  B    -1.792219   -0.589638   -1.093946
  B     0.986564   -1.574614   -0.419622
  B     0.634276    1.011806   -1.400892
  B     0.580190   -0.757129   -2.376760
  B     0.389785   -2.452457    1.688178
  B    -1.236673    1.211051   -1.101764
  B     2.184169   -0.067037    2.026836
  B     1.831123    1.220096   -0.439977
  B    -3.048665   -1.106754   -1.246387
  B     0.544255    1.129446    2.071250

----------------------------
CARTESIAN COORDINATES (A.U.)
----------------------------
  NO LB    ZA    FRAG    MASS        X           Y           Z
   0 B   5.0000    0    10.810    0.278309    0.521677    1.192404
   1 B   5.0000    0    10.810   -2.305614    3.210968    3.140897
   2 B   5.0000    0    10.810   -3.386803   -1.114255   -2.067259
   3 B   5.0000    0    10.810    1.864335   -2.975588   -0.792970
   4 B   5.0000    0    10.810    1.198607    1.912036   -2.647302
   5 B   5.0000    0    10.810    1.096401   -1.430767   -4.491426
   6 B   5.0000    0    10.810    0.736587   -4.634473    3.190195
   7 B   5.0000    0    10.810   -2.336973    2.288555   -2.082033
   8 B   5.0000    0    10.810    4.127481   -0.126682    3.830164
   9 B   5.0000    0    10.810    3.460321    2.305647   -0.831435
  10 B   5.0000    0    10.810   -5.761142   -2.091462   -2.355329
  11 B   5.0000    0    10.810    1.028492    2.134343    3.914094

      -----------------------------------------------------------      
     |                   =====================                   |     
     |                           x T B                           |     
     |                   =====================                   |     
     |                         S. Grimme                         |     
     |          Mulliken Center for Theoretical Chemistry        |     
     |                    University of Bonn                     |     
      -----------------------------------------------------------      

   * xtb version 6.6.1 (unknown) compiled by 'builduser@buildhost' on 2023-08-07

   xtb is free software: you can redistribute it and/or modify it under
   the terms of the GNU Lesser General Public License as published by
   the Free Software Foundation, either version 3 of the License, or
   (at your option) any later version.
   
   xtb is distributed in the hope that it will be useful,
   but WITHOUT ANY WARRANTY; without even the implied warranty of
   MERCHANTABILITY or FITNESS FOR A PARTICULAR PURPOSE.  See the
   GNU Lesser General Public License for more details.
   
   Cite this work as:
   * C. Bannwarth, E. Caldeweyher, S. Ehlert, A. Hansen, P. Pracht,
     J. Seibert, S. Spicher, S. Grimme, WIREs Comput. Mol. Sci., 2020, 11,
     e01493. DOI: 10.1002/wcms.1493
   
   for GFN2-xTB:
   * C. Bannwarth, S. Ehlert and S. Grimme., J. Chem. Theory Comput., 2019,
     15, 1652-1671. DOI: 10.1021/acs.jctc.8b01176
   for GFN1-xTB:
   * S. Grimme, C. Bannwarth, P. Shushkov, J. Chem. Theory Comput., 2017,
     13, 1989-2009. DOI: 10.1021/acs.jctc.7b00118
   for GFN0-xTB:
   * P. Pracht, E. Caldeweyher, S. Ehlert, S. Grimme, ChemRxiv, 2019, preprint.
     DOI: 10.26434/chemrxiv.8326202.v1
   for GFN-FF:
   * S. Spicher and S. Grimme, Angew. Chem. Int. Ed., 2020, 59, 15665-15673.
     DOI: 10.1002/anie.202004239
   
   for ALPB and GBSA implicit solvation:
   * S. Ehlert, M. Stahn, S. Spicher, S. Grimme, J. Chem. Theory Comput.,
     2021, 17, 4250-4261. DOI: 10.1021/acs.jctc.1c00471
   
   for DFT-D4:
   * E. Caldeweyher, C. Bannwarth and S. Grimme, J. Chem. Phys., 2017,
     147, 034112. DOI: 10.1063/1.4993215
   * E. Caldeweyher, S. Ehlert, A. Hansen, H. Neugebauer, S. Spicher,
     C. Bannwarth and S. Grimme, J. Chem. Phys., 2019, 150, 154122.
     DOI: 10.1063/1.5090222
   * E. Caldeweyher, J.-M. Mewes, S. Ehlert and S. Grimme, Phys. Chem. Chem. Phys.
     2020, 22, 8499-8512. DOI: 10.1039/D0CP00502A
   
   for sTDA-xTB:
   * S. Grimme and C. Bannwarth, J. Chem. Phys., 2016, 145, 054103.
     DOI: 10.1063/1.4959605
   
   in the mass-spec context:
   * V. Asgeirsson, C. Bauer and S. Grimme, Chem. Sci., 2017, 8, 4879.
     DOI: 10.1039/c7sc00601b
   * J. Koopman and S. Grimme, ACS Omega 2019, 4, 12, 15120-15133.
     DOI: 10.1021/acsomega.9b02011
   
   for metadynamics refer to:
   * S. Grimme, J. Chem. Theory Comput., 2019, 155, 2847-2862
     DOI: 10.1021/acs.jctc.9b00143
   
   for SPH calculations refer to:
   * S. Spicher and S. Grimme, J. Chem. Theory Comput., 2021, 17, 1701-1714
     DOI: 10.1021/acs.jctc.0c01306
   
   with help from (in alphabetical order)
   P. Atkinson, C. Bannwarth, F. Bohle, G. Brandenburg, E. Caldeweyher
   M. Checinski, S. Dohm, S. Ehlert, S. Ehrlich, I. Gerasimov, C. Hölzer
   A. Katbashev, J. Koopman, C. Lavigne, S. Lehtola, F. März, M. Müller,
   F. Musil, H. Neugebauer, J. Pisarek, C. Plett, P. Pracht, F. Pultar,
   J. Seibert, P. Shushkov, S. Spicher, M. Stahn, M. Steiner, T. Strunk,
   J. Stückrath, T. Rose, and J. Unsleber
   
 * started run on 2026/04/17 at 12:14:16.936     

           -------------------------------------------------
          |                Calculation Setup                |
           -------------------------------------------------

          program call               : /usr/bin/xtb random_d1.90_008_m1_XTB.xyz --grad -c 0 -u 0 -P 1 --namespace random_d1.90_008_m1 --input random_d1.90_008_m1_XTB.input.tmp --acc 0.200000
          calculation namespace      : random_d1.90_008_m1
          coordinate file            : random_d1.90_008_m1_XTB.xyz
          omp threads                :                     1

   ID    Z sym.   atoms
    1    5 B      1-12

molecular fragmentation (1/2 indicates fragments):
121111212112
# atoms in fragment 1/2:     8     4
 fragment masses (1/2) :       86.49       43.24
CMA distance (Bohr)    :   5.451
constraining FC (au)   :  0.0500

           -------------------------------------------------
          |                 G F N 2 - x T B                 |
           -------------------------------------------------

        Reference                      10.1021/acs.jctc.8b01176
      * Hamiltonian:
        H0-scaling (s, p, d)           1.850000    2.230000    2.230000
        zeta-weighting                 0.500000
      * Dispersion:
        s8                             2.700000
        a1                             0.520000
        a2                             5.000000
        s9                             5.000000
      * Repulsion:
        kExp                           1.500000    1.000000
        rExp                           1.000000
      * Coulomb:
        alpha                          2.000000
        third order                    shell-resolved
        anisotropic                    true
        a3                             3.000000
        a5                             4.000000
        cn-shift                       1.200000
        cn-exp                         4.000000
        max-rad                        5.000000


          ...................................................
          :                      SETUP                      :
          :.................................................:
          :  # basis functions                  48          :
          :  # atomic orbitals                  48          :
          :  # shells                           24          :
          :  # electrons                        36          :
          :  max. iterations                   250          :
          :  Hamiltonian                  GFN2-xTB          :
          :  restarted?                      false          :
          :  GBSA solvation                  false          :
          :  PC potential                    false          :
          :  electronic temp.          300.0000000     K    :
          :  accuracy                    0.2000000          :
          :  -> integral cutoff          0.3198970E+02      :
          :  -> integral neglect         0.2000000E-08      :
          :  -> SCF convergence          0.2000000E-06 Eh   :
          :  -> wf. convergence          0.2000000E-04 e    :
          :  Broyden damping             0.4000000          :
          ...................................................

 iter      E             dE          RMSdq      gap      omega  full diag
   1    -12.8205860 -0.128206E+02  0.204E+01    0.18       0.0  T
   2     -0.8736757  0.119469E+02  0.217E+01    0.39       1.0  T
   3     14.2137867  0.150875E+02  0.283E+01    0.27       1.0  T
   4     -0.8659840 -0.150798E+02  0.193E+01    0.22       1.0  T
   5      1.4643946  0.233038E+01  0.188E+01    0.21       1.0  T
   6     -8.5557949 -0.100202E+02  0.141E+01    0.37       1.0  T
   7    -10.4362132 -0.188042E+01  0.119E+01    0.07       1.0  T
   8     -8.8632231  0.157299E+01  0.125E+01    0.11       1.0  T
   9    -12.8094419 -0.394622E+01  0.856E+00    0.06       1.0  T
  10    -11.3527067  0.145674E+01  0.102E+01    0.14       1.0  T
  11    -12.1495835 -0.796877E+00  0.871E+00    0.10       1.0  T
  12    -12.0706589  0.789246E-01  0.892E+00    0.11       1.0  T
  13    -12.1391523 -0.684934E-01  0.876E+00    0.09       1.0  T
  14    -12.1395272 -0.374831E-03  0.877E+00    0.09       1.0  T
  15    -12.1933106 -0.537834E-01  0.863E+00    0.09       1.0  T
  16    -12.2778127 -0.845021E-01  0.799E+00    0.05       1.0  T
  17    -12.4808528 -0.203040E+00  0.728E+00    0.03       1.0  T
  18    -12.5330591 -0.522063E-01  0.725E+00    0.04       1.0  T
  19    -12.5190376  0.140216E-01  0.715E+00    0.05       1.0  T
  20    -12.5516910 -0.326534E-01  0.695E+00    0.03       1.0  T
  21    -13.0892719 -0.537581E+00  0.674E+00    0.23       1.0  T
  22    -13.1820592 -0.927873E-01  0.615E+00    0.19       1.0  T
  23    -13.1897893 -0.773014E-02  0.606E+00    0.19       1.0  T
  24    -13.1797162  0.100731E-01  0.617E+00    0.18       1.0  T
  25    -13.1664255  0.132907E-01  0.593E+00    0.17       1.0  T
  26    -13.1698109 -0.338543E-02  0.591E+00    0.17       1.0  T
  27    -13.1409751  0.288357E-01  0.609E+00    0.16       1.0  T
  28    -13.1692649 -0.282898E-01  0.547E+00    0.15       1.0  T
  29    -13.1688798  0.385094E-03  0.499E+00    0.13       1.0  T
  30    -12.7924689  0.376411E+00  0.662E+00    0.12       1.0  T
  31    -12.7775348  0.149341E-01  0.668E+00    0.12       1.0  T
  32    -13.2968684 -0.519334E+00  0.302E+00    0.14       1.0  T
  33    -13.3090549 -0.121865E-01  0.323E+00    0.16       1.0  T
  34    -13.3430868 -0.340319E-01  0.253E+00    0.15       1.0  T
  35    -13.3426185  0.468236E-03  0.268E+00    0.15       1.0  T
  36    -13.3663782 -0.237597E-01  0.221E+00    0.14       1.0  T
  37    -13.3844063 -0.180281E-01  0.204E+00    0.12       1.0  T
  38    -13.3810649  0.334142E-02  0.214E+00    0.13       1.0  T
  39    -13.3946445 -0.135796E-01  0.157E+00    0.12       1.0  T
  40    -13.3828424  0.118021E-01  0.179E+00    0.07       1.0  T
  41    -13.4069475 -0.241050E-01  0.126E+00    0.09       1.0  T
  42    -13.4043204  0.262707E-02  0.132E+00    0.08       1.0  T
  43    -13.4137065 -0.938612E-02  0.985E-01    0.10       1.0  T
  44    -13.4173642 -0.365765E-02  0.780E-01    0.12       1.0  T
  45    -13.4131294  0.423474E-02  0.827E-01    0.10       1.0  T
  46    -13.4135525 -0.423084E-03  0.812E-01    0.10       1.0  T
  47    -13.4148448 -0.129233E-02  0.732E-01    0.10       1.0  T
  48    -13.4149381 -0.933081E-04  0.650E-01    0.11       1.0  T
  49    -13.4156558 -0.717690E-03  0.602E-01    0.11       1.0  T
  50    -13.4160982 -0.442387E-03  0.566E-01    0.12       1.0  T
  51    -13.4163304 -0.232233E-03  0.547E-01    0.12       1.0  T
  52    -13.4171671 -0.836649E-03  0.498E-01    0.12       1.0  T
  53    -13.4173549 -0.187849E-03  0.487E-01    0.12       1.0  T
  54    -13.4178520 -0.497082E-03  0.439E-01    0.12       1.0  T
  55    -13.4185905 -0.738454E-03  0.368E-01    0.12       1.0  T
  56    -13.4191793 -0.588822E-03  0.266E-01    0.12       1.0  T
  57    -13.4195921 -0.412830E-03  0.156E-01    0.12       1.0  T
  58    -13.4197745 -0.182344E-03  0.836E-02    0.12       1.0  T
  59    -13.4197959 -0.214378E-04  0.678E-02    0.12       1.0  T
  60    -13.4197484  0.475536E-04  0.907E-02    0.11       1.0  T
  61    -13.4197546 -0.627543E-05  0.866E-02    0.11       1.0  T
  62    -13.4197654 -0.107284E-04  0.782E-02    0.11       1.0  T
  63    -13.4197872 -0.218728E-04  0.590E-02    0.12       1.0  T
  64    -13.4198053 -0.180698E-04  0.406E-02    0.12       1.0  T
  65    -13.4198111 -0.576433E-05  0.307E-02    0.12       1.0  T
  66    -13.4198165 -0.539800E-05  0.153E-02    0.12       1.9  T
  67    -13.4198171 -0.680029E-06  0.103E-02    0.12       2.8  T
  68    -13.4198173 -0.178338E-06  0.518E-03    0.12       5.6  T
  69    -13.4198173  0.649945E-07  0.427E-03    0.12       6.8  T
  70    -13.4198173 -0.358317E-07  0.270E-03    0.12      10.7  T
  71    -13.4198173 -0.701520E-08  0.223E-03    0.12      13.0  T
  72    -13.4198173 -0.446200E-08  0.199E-03    0.12      14.5  T
  73    -13.4198173 -0.173494E-07  0.157E-03    0.12      18.4  T
  74    -13.4198173 -0.197506E-07  0.894E-04    0.12      32.3  T
  75    -13.4198173 -0.588133E-08  0.512E-04    0.12      56.4  T
  76    -13.4198174 -0.284678E-08  0.149E-04    0.12     193.5  T
  77    -13.4198174  0.261906E-10  0.124E-04    0.12     232.8  T

   *** convergence criteria satisfied after 77 iterations ***

         #    Occupation            Energy/Eh            Energy/eV
      -------------------------------------------------------------
         1        2.0000           -0.4127844             -11.2324
       ...           ...                  ...                  ...
        12        2.0000           -0.2770708              -7.5395
        13        2.0000           -0.2733824              -7.4391
        14        2.0000           -0.2647256              -7.2036
        15        2.0000           -0.2578210              -7.0157
        16        2.0000           -0.2567563              -6.9867
        17        1.9744           -0.2462207              -6.7000
        18        1.8214           -0.2442967              -6.6477 (HOMO)
        19        0.2000           -0.2400030              -6.5308 (LUMO)
        20        0.0042           -0.2362382              -6.4284
        21                         -0.2233618              -6.0780
        22                         -0.2208470              -6.0096
        23                         -0.2144484              -5.8354
       ...                                ...                  ...
        48                          1.4975196              40.7496
      -------------------------------------------------------------
                  HL-Gap            0.0042937 Eh            0.1168 eV
             Fermi-level           -0.2420907 Eh           -6.5876 eV

 SCC (total)                   0 d,  0 h,  0 min,  0.118 sec
 SCC setup                      ...        0 min,  0.000 sec (  0.126%)
 Dispersion                     ...        0 min,  0.000 sec (  0.087%)
 classical contributions        ...        0 min,  0.000 sec (  0.033%)
 integral evaluation            ...        0 min,  0.003 sec (  2.447%)
 iterations                     ...        0 min,  0.109 sec ( 92.069%)
 molecular gradient             ...        0 min,  0.006 sec (  4.844%)
 printout                       ...        0 min,  0.000 sec (  0.373%)

         :::::::::::::::::::::::::::::::::::::::::::::::::::::
         ::                     SUMMARY                     ::
         :::::::::::::::::::::::::::::::::::::::::::::::::::::
         :: total energy             -13.324482639157 Eh    ::
         :: gradient norm              0.266909755497 Eh/a0 ::
         :: HOMO-LUMO gap              0.116837484054 eV    ::
         ::.................................................::
         :: SCC energy               -13.419817351754 Eh    ::
         :: -> isotropic ES            0.061672838697 Eh    ::
         :: -> anisotropic ES         -0.000331548860 Eh    ::
         :: -> anisotropic XC         -0.035039317358 Eh    ::
         :: -> dispersion             -0.022592389075 Eh    ::
         :: repulsion energy           0.095214199306 Eh    ::
         :: add. restraining           0.000000000000 Eh    ::
         :: total charge               0.000000000045 e     ::
         :::::::::::::::::::::::::::::::::::::::::::::::::::::


Property printout bound to 'properties.out'

           -------------------------------------------------
          | TOTAL ENERGY              -13.324482639157 Eh   |
          | GRADIENT NORM               0.266909755497 Eh/α |
          | HOMO-LUMO GAP               0.116837484054 eV   |
           -------------------------------------------------

------------------------------------------------------------------------
 * finished run on 2026/04/17 at 12:14:17.068     
------------------------------------------------------------------------
 total:
 * wall-time:     0 d,  0 h,  0 min,  0.132 sec
 *  cpu-time:     0 d,  0 h,  0 min,  0.132 sec
 * ratio c/w:     0.997 speedup
 SCF:
 * wall-time:     0 d,  0 h,  0 min,  0.118 sec
 *  cpu-time:     0 d,  0 h,  0 min,  0.118 sec
 * ratio c/w:     1.000 speedup


-------------------------   --------------------
FINAL SINGLE POINT ENERGY       -13.324482639160
-------------------------   --------------------


-------------
DIPOLE MOMENT
-------------
                                X             Y             Z
Total Dipole Moment    :     -0.80800       0.18900      -1.59800
                        -----------------------------------------
Magnitude (a.u.)       :      1.80061
Magnitude (Debye)      :      4.57678


------------------
CARTESIAN GRADIENT
------------------

   1   B   :   -0.019626384   -0.017981070    0.009498512
   2   B   :   -0.080218568    0.035446428    0.021664280
   3   B   :   -0.093496331   -0.083065979   -0.003178027
   4   B   :    0.044422696   -0.020889483   -0.012722394
   5   B   :    0.041662736    0.018002501    0.016049250
   6   B   :   -0.001677487   -0.020717253   -0.104160980
   7   B   :   -0.026562061   -0.035147573    0.056717219
   8   B   :   -0.051295972    0.065175750   -0.027386730
   9   B   :    0.067399607   -0.039994047    0.021459022
  10   B   :    0.034030877    0.028352502   -0.022009216
  11   B   :    0.066299862    0.032151059    0.008540576
  12   B   :    0.019061025    0.038667164    0.035528487

Difference to translation invariance:
           :    0.0000000000   -0.0000000000    0.0000000000

Difference to rotation invariance:
           :   -0.0000000460   -0.0000000404    0.0000000260

Norm of the Cartesian gradient     ...    0.2669097555
RMS gradient                       ...    0.0444849592
MAX gradient                       ...    0.1041609800
------------------------------------------------------------------------------
                         ORCA GEOMETRY RELAXATION STEP
------------------------------------------------------------------------------

Reading the OPT-File                    .... done
Getting information on internals        .... done
Copying old internal coords+grads       .... done
Making the new internal coordinates     .... (2022 redundants) done
Validating the new internal coordinates .... (2022 redundants) done
Calculating the B-matrix                .... done
Calculating the G,G- and P matrices     .... done
Transforming gradient to internals      .... done
Projecting the internal gradient        .... done
Number of atoms                         ....  12
Number of internal coordinates          .... 211
Current Energy                          ....   -13.324482639 Eh
Current gradient norm                   ....     0.266909755 Eh/bohr
Maximum allowed component of the step   ....  0.300
Current trust radius                    ....  0.300
Evaluating the initial hessian          ....  (Almloef) done
Projecting the Hessian                  .... done
Forming the augmented Hessian           .... done
Diagonalizing the augmented Hessian     .... done
Last element of RFO vector              ....  0.776851557
Lowest eigenvalues of augmented Hessian:
 -0.145034717  0.013919285  0.017412310  0.020666110  0.021157397
Length of the computed step             ....  0.810558685
Warning: the length of the step is outside the trust region - taking restricted step instead
The input lambda is                     ....     0.012775
   iter:   5  x=   -0.009581  g= 1766.650578 f(x)=    19.012679
   iter:  10  x=   -0.287369  g=    3.647404 f(x)=     0.370709
   iter:  15  x=   -0.515801  g=    0.298233 f(x)=     0.000005
The output lambda is                    ....    -0.515801 (17 iterations)
The final length of the internal step   ....  0.300000000
Converting the step to Cartesian space:
 Initial RMS(Int)=    0.0206528517
Transforming coordinates:
 Iter   0:  RMS(Cart)=    0.0429821489 RMS(Int)=    0.0206482302
done
Storing new coordinates                 .... done

                                .--------------------.
          ----------------------|Geometry convergence|-------------------------
          Item                value                   Tolerance       Converged
          ---------------------------------------------------------------------
          RMS gradient        0.0131968686            0.0000300000      NO
          MAX gradient        0.0740404588            0.0001000000      NO
          RMS step            0.0206528517            0.0006000000      NO
          MAX step            0.1148678444            0.0010000000      NO
          -------------------------------------------------------------------------
          ........................................................
          Max(Bonds)      0.0608      Max(Angles)    1.87
          Max(Dihed)        1.76      Max(Improp)    0.00
          ---------------------------------------------------------------------

The optimization has not yet converged - more geometry cycles are needed


    ---------------------------------------------------------------------------
                         Redundant Internal Coordinates
                            (Angstroem and degrees)

        Definition                    Value    dE/dq     Step     New-Value
    ----------------------------------------------------------------------------
     1. B(B   2,B   0)                2.7361  0.021209 -0.0202    2.7159   
     2. B(B   3,B   0)                2.2876  0.028862 -0.0270    2.2606   
     3. B(B   4,B   3)                2.7886  0.012544 -0.0127    2.7759   
     4. B(B   4,B   0)                2.2152  0.015674 -0.0148    2.2004   
     5. B(B   5,B   3)                2.1596  0.054261 -0.0497    2.1099   
     6. B(B   5,B   4)                2.0210  0.051634 -0.0455    1.9755   
     7. B(B   6,B   3)                2.3600  0.047838 -0.0460    2.3140   
     8. B(B   6,B   0)                2.9362  0.016457 -0.0181    2.9181   
     9. B(B   7,B   1)                2.8067  0.025831 -0.0245    2.7822   
    10. B(B   7,B   4)                1.9052  0.044336 -0.0385    1.8667   
    11. B(B   7,B   0)                2.4067  0.024329 -0.0229    2.3838   
    12. B(B   7,B   2)                1.8845  0.038735 -0.0328    1.8517   
    13. B(B   8,B   6)                3.0041  0.018078 -0.0172    2.9869   
    14. B(B   9,B   8)                2.8047  0.022035 -0.0227    2.7820   
    15. B(B   9,B   0)                2.2076  0.017011 -0.0158    2.1918   
    16. B(B   9,B   4)                1.5489  0.015512 -0.0099    1.5390   
    17. B(B  10,B   2)                1.3672 -0.074040  0.0275    1.3947   
    18. B(B  11,B   9)                2.8232  0.022029 -0.0205    2.8027   
    19. B(B  11,B   1)                1.8986  0.073756 -0.0608    1.8379   
    20. B(B  11,B   0)                1.7205  0.030998 -0.0239    1.6966   
    21. B(B  11,B   8)                2.0305  0.051766 -0.0462    1.9842   
    22. A(B   2,B   0,B   3)           73.42  0.003247   -0.33     73.08   
    23. A(B   7,B   0,B  11)          122.87 -0.008030    0.69    123.56   
    24. A(B   2,B   0,B  11)          148.02 -0.005457    0.50    148.52   
    25. A(B   3,B   0,B   7)          101.22  0.003666   -0.30    100.92   
    26. A(B   6,B   0,B   7)          131.89  0.005102   -0.46    131.43   
    27. A(B   4,B   0,B   9)           41.00  0.001040    0.02     41.02   
    28. A(B   4,B   0,B   6)          128.37  0.002993   -0.32    128.05   
    29. A(B   2,B   0,B   9)          111.72  0.009809   -0.78    110.95   
    30. A(B   6,B   0,B  11)           98.07 -0.000150    0.05     98.12   
    31. A(B   2,B   0,B   4)           71.50  0.008779   -0.80     70.70   
    32. A(B   2,B   0,B   6)           89.51 -0.000119   -0.02     89.49   
    33. A(B   2,B   0,B   7)           42.39  0.005159   -0.43     41.95   
    34. A(B   6,B   0,B   9)          120.60 -0.001731    0.09    120.69   
    35. A(B   4,B   0,B  11)          123.53 -0.004592    0.43    123.96   
    36. A(B   3,B   0,B  11)          134.51  0.003225   -0.28    134.24   
    37. A(B   7,B   0,B   9)           85.60  0.006694   -0.50     85.09   
    38. A(B   3,B   0,B   4)           76.51 -0.004563    0.43     76.95   
    39. A(B   3,B   0,B   9)           80.99 -0.004880    0.50     81.49   
    40. A(B   9,B   0,B  11)           91.03 -0.004243    0.30     91.33   
    41. A(B   3,B   0,B   6)           51.92  0.007409   -0.74     51.19   
    42. A(B   4,B   0,B   7)           48.47  0.006887   -0.61     47.86   
    43. A(B   7,B   1,B  11)           99.53 -0.013353    1.24    100.76   
    44. A(B   0,B   2,B  10)          147.28  0.003892   -0.32    146.97   
    45. A(B   0,B   2,B   7)           59.42  0.000211   -0.04     59.39   
    46. A(B   7,B   2,B  10)          129.19 -0.002688    0.24    129.43   
    47. A(B   0,B   3,B   6)           78.34 -0.009481    0.90     79.24   
    48. A(B   5,B   3,B   6)          154.51  0.000883   -0.06    154.45   
    49. A(B   0,B   3,B   4)           50.57  0.000328   -0.02     50.55   
    50. A(B   4,B   3,B   6)          128.85 -0.008989    0.86    129.72   
    51. A(B   4,B   3,B   5)           46.07  0.009267   -0.85     45.22   
    52. A(B   0,B   3,B   5)           92.35  0.009226   -0.84     91.50   
    53. A(B   0,B   4,B   9)           69.24 -0.000067   -0.05     69.19   
    54. A(B   5,B   4,B   9)          115.97  0.005486   -0.51    115.46   
    55. A(B   0,B   4,B   3)           52.91  0.004235   -0.41     52.50   
    56. A(B   3,B   4,B   7)           99.54  0.004285   -0.41     99.13   
    57. A(B   0,B   4,B   7)           71.02 -0.002518    0.20     71.23   
    58. A(B   3,B   4,B   5)           50.32  0.010489   -1.02     49.30   
    59. A(B   0,B   4,B   5)           98.41  0.013915   -1.36     97.06   
    60. A(B   5,B   4,B   7)           98.11  0.006523   -0.59     97.52   
    61. A(B   3,B   4,B   9)           78.98 -0.000689    0.05     79.03   
    62. A(B   7,B   4,B   9)          130.34 -0.003821    0.25    130.60   
    63. A(B   3,B   5,B   4)           83.61 -0.019757    1.87     85.48   
    64. A(B   0,B   6,B   3)           49.73  0.002072   -0.16     49.57   
    65. A(B   0,B   6,B   8)           49.61  0.006211   -0.54     49.07   
    66. A(B   3,B   6,B   8)           69.77  0.002124   -0.09     69.69   
    67. A(B   1,B   7,B   4)           99.61  0.009004   -0.74     98.88   
    68. A(B   1,B   7,B   2)           99.43  0.000702   -0.02     99.41   
    69. A(B   0,B   7,B   4)           60.51 -0.004369    0.41     60.92   
    70. A(B   2,B   7,B   4)          100.97 -0.004174    0.32    101.29   
    71. A(B   0,B   7,B   1)           49.85  0.014828   -1.28     48.57   
    72. A(B   0,B   7,B   2)           78.19 -0.005370    0.47     78.66   
    73. A(B   6,B   8,B  11)           89.31 -0.003479    0.37     89.68   
    74. A(B   9,B   8,B  11)           69.34 -0.003744    0.40     69.74   
    75. A(B   6,B   8,B   9)          100.96 -0.001713    0.10    101.05   
    76. A(B   0,B   9,B   8)           58.20  0.006684   -0.56     57.64   
    77. A(B   4,B   9,B   8)          125.53  0.004886   -0.44    125.09   
    78. A(B   8,B   9,B  11)           42.30  0.007233   -0.67     41.63   
    79. A(B   0,B   9,B  11)           37.54  0.004212   -0.30     37.24   
    80. A(B   0,B   9,B   4)           69.76 -0.000973    0.03     69.79   
    81. A(B   4,B   9,B  11)          101.26  0.001465   -0.12    101.14   
    82. A(B   0,B  11,B   8)           82.86 -0.003740    0.31     83.18   
    83. A(B   0,B  11,B   1)           75.76  0.007339   -0.72     75.04   
    84. A(B   8,B  11,B   9)           68.37 -0.003489    0.27     68.63   
    85. A(B   1,B  11,B   9)          102.84  0.006530   -0.60    102.24   
    86. A(B   0,B  11,B   9)           51.43  0.000031    0.00     51.43   
    87. A(B   1,B  11,B   8)          157.31  0.003246   -0.37    156.94   
    88. D(B   7,B   2,B   0,B  11)     76.43 -0.001307    0.10     76.52   
    89. D(B   7,B   2,B   0,B   3)   -128.87  0.004729   -0.50   -129.37   
    90. D(B   7,B   2,B   0,B   6)   -179.00 -0.004016    0.36   -178.64   
    91. D(B  10,B   2,B   0,B   4)   -163.88  0.000941   -0.09   -163.97   
    92. D(B   7,B   2,B   0,B   4)    -47.90 -0.003341    0.27    -47.63   
    93. D(B  10,B   2,B   0,B  11)    -39.56  0.002975   -0.26    -39.82   
    94. D(B  10,B   2,B   0,B   9)   -171.99  0.000736   -0.10   -172.09   
    95. D(B   7,B   2,B   0,B   9)    -56.00 -0.003546    0.26    -55.75   
    96. D(B   5,B   3,B   0,B   2)     53.23  0.007141   -0.66     52.57   
    97. D(B   5,B   3,B   0,B   9)    -62.77 -0.004519    0.29    -62.47   
    98. D(B   5,B   3,B   0,B   7)     20.87  0.000686   -0.06     20.81   
    99. D(B   4,B   3,B   0,B   9)    -41.60 -0.001819    0.06    -41.55   
   100. D(B   5,B   3,B   0,B  11)   -145.27  0.007430   -0.72   -146.00   
   101. D(B   4,B   3,B   0,B  11)   -124.11  0.010131   -0.96   -125.07   
   102. D(B   4,B   3,B   0,B   7)     42.04  0.003386   -0.30     41.74   
   103. D(B   5,B   3,B   0,B   4)    -21.16 -0.002701    0.24    -20.93   
   104. D(B   5,B   3,B   0,B   6)    156.06  0.000566   -0.04    156.02   
   105. D(B   7,B   4,B   0,B   2)     41.92  0.002310   -0.15     41.77   
   106. D(B   7,B   4,B   0,B   3)    118.67  0.005616   -0.50    118.17   
   107. D(B   5,B   4,B   3,B   0)   -149.94 -0.001348    0.14   -149.80   
   108. D(B   7,B   4,B   3,B   0)    -57.28  0.005007   -0.42    -57.71   
   109. D(B   7,B   4,B   3,B   5)     92.66  0.006355   -0.56     92.09   
   110. D(B   7,B   4,B   0,B  11)   -106.43  0.004965   -0.40   -106.83   
   111. D(B   5,B   4,B   3,B   6)   -146.45 -0.006020    0.54   -145.90   
   112. D(B   5,B   4,B   0,B   3)     22.93  0.003568   -0.34     22.59   
   113. D(B   5,B   4,B   0,B   2)    -53.81  0.000261    0.00    -53.81   
   114. D(B   7,B   4,B   0,B   9)   -149.59  0.003057   -0.22   -149.82   
   115. D(B   5,B   4,B   0,B   6)     20.14  0.006449   -0.58     19.56   
   116. D(B   9,B   4,B   3,B   0)     72.21  0.000581   -0.12     72.10   
   117. D(B   5,B   4,B   0,B   7)    -95.74 -0.002049    0.16    -95.58   
   118. D(B   5,B   4,B   0,B  11)    157.84  0.002917   -0.24    157.59   
   119. D(B   5,B   4,B   0,B   9)    114.67  0.001008   -0.07    114.60   
   120. D(B   9,B   4,B   3,B   5)   -137.85  0.001929   -0.25   -138.10   
   121. D(B   7,B   4,B   3,B   6)    -53.79  0.000335   -0.02    -53.81   
   122. D(B   3,B   5,B   4,B   0)    -23.82 -0.001294    0.12    -23.70   
   123. D(B   3,B   5,B   4,B   9)     47.12  0.005027   -0.56     46.56   
   124. D(B   4,B   5,B   3,B   6)     90.21 -0.004023    0.45     90.66   
   125. D(B   3,B   5,B   4,B   7)    -95.70 -0.000860    0.11    -95.59   
   126. D(B   4,B   5,B   3,B   0)     22.78 -0.000706    0.08     22.86   
   127. D(B   8,B   6,B   3,B   4)    -56.39 -0.003316    0.36    -56.03   
   128. D(B   8,B   6,B   3,B   0)    -53.64 -0.006891    0.67    -52.96   
   129. D(B   3,B   6,B   0,B   7)     68.24  0.009949   -0.94     67.31   
   130. D(B   0,B   6,B   3,B   4)     -2.76  0.003575   -0.31     -3.06   
   131. D(B   0,B   6,B   3,B   5)    -70.40 -0.000559   -0.01    -70.40   
   132. D(B   8,B   6,B   0,B   9)     51.22 -0.009197    0.83     52.05   
   133. D(B   8,B   6,B   0,B  11)    -44.81 -0.003745    0.43    -44.38   
   134. D(B   3,B   6,B   0,B   2)     69.15  0.006473   -0.62     68.52   
   135. D(B   8,B   6,B   0,B   4)    100.67 -0.008492    0.87    101.54   
   136. D(B   8,B   6,B   3,B   5)   -124.03 -0.007450    0.67   -123.37   
   137. D(B   3,B   6,B   0,B   4)      3.45 -0.003977    0.34      3.78   
   138. D(B   3,B   6,B   0,B   9)    -46.00 -0.004682    0.29    -45.71   
   139. D(B   3,B   6,B   0,B  11)   -142.03  0.000771   -0.11   -142.14   
   140. D(B   2,B   7,B   1,B  11)     87.60 -0.003373    0.30     87.89   
   141. D(B   4,B   7,B   0,B   2)   -109.97 -0.000392    0.10   -109.87   
   142. D(B   2,B   7,B   0,B   4)    109.97  0.000392   -0.10    109.87   
   143. D(B   2,B   7,B   0,B   6)      1.34 -0.005289    0.47      1.82   
   144. D(B   2,B   7,B   0,B   3)     49.53  0.006454   -0.66     48.87   
   145. D(B   4,B   7,B   0,B   9)     19.45  0.002080   -0.11     19.34   
   146. D(B   2,B   7,B   0,B   9)    129.42  0.002472   -0.21    129.21   
   147. D(B   2,B   7,B   0,B  11)   -142.20  0.002510   -0.25   -142.45   
   148. D(B   4,B   7,B   0,B   3)    -60.44  0.006062   -0.56    -61.00   
   149. D(B   4,B   7,B   1,B  11)    -15.33 -0.001083    0.12    -15.21   
   150. D(B   4,B   7,B   0,B  11)    107.83  0.002119   -0.15    107.68   
   151. D(B   0,B   7,B   4,B   3)     45.21  0.000858   -0.11     45.10   
   152. D(B   0,B   7,B   4,B   5)     96.16  0.012365   -1.23     94.93   
   153. D(B   2,B   7,B   4,B   3)    -24.35  0.006425   -0.64    -24.99   
   154. D(B   2,B   7,B   4,B   0)    -69.57  0.005567   -0.53    -70.10   
   155. D(B   2,B   7,B   4,B   9)   -107.95  0.004031   -0.38   -108.33   
   156. D(B   2,B   7,B   4,B   5)     26.59  0.017933   -1.76     24.84   
   157. D(B   1,B   7,B   2,B   0)    -45.37 -0.013809    1.20    -44.17   
   158. D(B   1,B   7,B   2,B  10)     95.82 -0.008851    0.79     96.61   
   159. D(B   0,B   7,B   2,B  10)    141.18  0.004959   -0.41    140.77   
   160. D(B   4,B   7,B   2,B   0)     56.44 -0.005158    0.50     56.94   
   161. D(B   0,B   7,B   4,B   9)    -38.38 -0.001536    0.15    -38.23   
   162. D(B   4,B   7,B   2,B  10)   -162.38 -0.000200    0.09   -162.29   
   163. D(B   0,B   7,B   1,B  11)     21.90 -0.003373    0.32     22.22   
   164. D(B   9,B   8,B   6,B   0)    -32.54  0.004325   -0.44    -32.98   
   165. D(B   9,B   8,B   6,B   3)     21.23  0.006433   -0.67     20.56   
   166. D(B  11,B   8,B   6,B   0)     36.25 -0.000091    0.05     36.29   
   167. D(B  11,B   8,B   6,B   3)     90.03  0.002017   -0.19     89.83   
   168. D(B  11,B   9,B   8,B   6)     85.06 -0.003974    0.46     85.51   
   169. D(B   0,B   9,B   8,B   6)     39.88 -0.005639    0.53     40.41   
   170. D(B   0,B   9,B   8,B  11)    -45.18 -0.001665    0.07    -45.11   
   171. D(B   4,B   9,B   8,B   6)     20.42 -0.008764    0.88     21.30   
   172. D(B   4,B   9,B   8,B  11)    -64.63 -0.004791    0.42    -64.21   
   173. D(B   8,B   9,B   4,B   3)    -36.76 -0.000530    0.03    -36.73   
   174. D(B   8,B   9,B   4,B   7)     56.46  0.005111   -0.51     55.95   
   175. D(B   8,B   9,B   4,B   5)    -71.83 -0.010010    1.00    -70.83   
   176. D(B   0,B   9,B   4,B   3)    -54.32 -0.004755    0.46    -53.86   
   177. D(B   0,B   9,B   4,B   7)     38.90  0.000886   -0.08     38.82   
   178. D(B   0,B   9,B   4,B   5)    -89.39 -0.014235    1.43    -87.97   
   179. D(B   8,B   9,B   0,B   2)   -151.45  0.002387   -0.25   -151.70   
   180. D(B   8,B   9,B   0,B   7)    174.46 -0.002709    0.16    174.62   
   181. D(B   8,B   9,B   4,B   0)     17.56  0.004225   -0.43     17.13   
   182. D(B   8,B   9,B   0,B   4)   -163.21  0.001725   -0.21   -163.41   
   183. D(B   8,B   9,B   0,B  11)     51.57  0.005198   -0.53     51.04   
   184. D(B   4,B   9,B   0,B   6)    114.77  0.006422   -0.57    114.20   
   185. D(B   4,B   9,B   0,B   3)     79.78 -0.001346    0.09     79.87   
   186. D(B   4,B   9,B   0,B   2)     11.76  0.000662   -0.05     11.71   
   187. D(B   4,B   9,B   0,B   7)    -22.33 -0.004434    0.36    -21.97   
   188. D(B   4,B   9,B   0,B  11)   -145.22  0.003473   -0.32   -145.54   
   189. D(B   8,B  11,B   9,B   4)    131.43  0.001050   -0.11    131.32   
   190. D(B   1,B  11,B   9,B   0)    -59.70 -0.003930    0.42    -59.28   
   191. D(B   1,B  11,B   9,B   4)    -26.63 -0.000717    0.11    -26.52   
   192. D(B   0,B  11,B   9,B   8)    -98.36  0.002162   -0.20    -98.56   
   193. D(B   9,B  11,B   8,B   6)   -101.99  0.000142    0.08   -101.91   
   194. D(B   1,B  11,B   8,B   6)    -31.18  0.005560   -0.49    -31.67   
   195. D(B   1,B  11,B   8,B   9)     70.80  0.005418   -0.56     70.24   
   196. D(B   0,B  11,B   8,B   6)    -50.77  0.001151   -0.01    -50.78   
   197. D(B   0,B  11,B   8,B   9)     51.22  0.001009   -0.09     51.13   
   198. D(B   9,B  11,B   1,B   7)     19.85  0.001315   -0.14     19.71   
   199. D(B   8,B  11,B   1,B   7)    -44.36 -0.002806    0.34    -44.02   
   200. D(B   0,B  11,B   1,B   7)    -24.30  0.000870   -0.07    -24.37   
   201. D(B   8,B  11,B   0,B   7)   -153.37 -0.004023    0.34   -153.03   
   202. D(B   8,B  11,B   0,B   4)    -94.63 -0.000109   -0.01    -94.64   
   203. D(B   8,B  11,B   0,B   9)    -67.95  0.001476   -0.09    -68.04   
   204. D(B   1,B  11,B   0,B   6)   -119.17 -0.000676    0.02   -119.15   
   205. D(B   0,B  11,B   9,B   4)     33.07  0.003213   -0.31     32.76   
   206. D(B   1,B  11,B   0,B   3)   -161.94 -0.009893    0.94   -161.01   
   207. D(B   1,B  11,B   0,B   2)    -16.99 -0.003836    0.31    -16.68   
   208. D(B   1,B  11,B   0,B   7)     34.29 -0.003650    0.30     34.59   
   209. D(B   1,B  11,B   9,B   8)   -158.06 -0.001768    0.22   -157.84   
   210. D(B   1,B  11,B   0,B   4)     93.04  0.000263   -0.05     92.99   
   211. D(B   1,B  11,B   0,B   9)    119.71  0.001848   -0.13    119.59   
    ----------------------------------------------------------------------------

Geometry step timings:
Preparation and reading OPT file:      0.000 s ( 0.266 %)
Internal coordinates            :      0.000 s ( 0.411 %)
B/P matrices and projection     :      0.003 s (17.768 %)
Hessian update/contruction      :      0.003 s (18.015 %)
Making the step                 :      0.008 s (50.901 %)
Converting the step to Cartesian:      0.000 s ( 2.118 %)
Storing new data                :      0.000 s ( 0.746 %)
Checking convergence            :      0.000 s ( 0.481 %)
Final printing                  :      0.001 s ( 9.289 %)
Total time                      :      0.016 s

Time for energy+gradient        :      0.143 s
Time for complete geometry iter :      0.161 s

         *************************************************************
         *                GEOMETRY OPTIMIZATION CYCLE   2            *
         *************************************************************
---------------------------------
CARTESIAN COORDINATES (ANGSTROEM)
---------------------------------
  B     0.148649    0.280192    0.628907
  B    -1.165166    1.654518    1.644086
  B    -1.763851   -0.574979   -1.099284
  B     0.966165   -1.559920   -0.398585
  B     0.618398    1.007715   -1.393811
  B     0.557844   -0.745853   -2.302086
  B     0.391129   -2.437218    1.664099
  B    -1.215543    1.193688   -1.099306
  B     2.150808   -0.048184    2.007154
  B     1.811645    1.220471   -0.445405
  B    -3.043919   -1.105524   -1.257636
  B     0.543842    1.115093    2.051866

----------------------------
CARTESIAN COORDINATES (A.U.)
----------------------------
  NO LB    ZA    FRAG    MASS        X           Y           Z
   0 B   5.0000    0    10.810    0.280906    0.529486    1.188461
   1 B   5.0000    0    10.810   -2.201845    3.126587    3.106872
   2 B   5.0000    0    10.810   -3.333196   -1.086552   -2.077346
   3 B   5.0000    0    10.810    1.825787   -2.947821   -0.753216
   4 B   5.0000    0    10.810    1.168603    1.904306   -2.633920
   5 B   5.0000    0    10.810    1.054172   -1.409459   -4.350311
   6 B   5.0000    0    10.810    0.739126   -4.605674    3.144691
   7 B   5.0000    0    10.810   -2.297044    2.255743   -2.077387
   8 B   5.0000    0    10.810    4.064438   -0.091055    3.792971
   9 B   5.0000    0    10.810    3.423513    2.306357   -0.841694
  10 B   5.0000    0    10.810   -5.752173   -2.089138   -2.376587
  11 B   5.0000    0    10.810    1.027712    2.107220    3.877466

      -----------------------------------------------------------      
     |                   =====================                   |     
     |                           x T B                           |     
     |                   =====================                   |     
     |                         S. Grimme                         |     
     |          Mulliken Center for Theoretical Chemistry        |     
     |                    University of Bonn                     |     
      -----------------------------------------------------------      

   * xtb version 6.6.1 (unknown) compiled by 'builduser@buildhost' on 2023-08-07

   xtb is free software: you can redistribute it and/or modify it under
   the terms of the GNU Lesser General Public License as published by
   the Free Software Foundation, either version 3 of the License, or
   (at your option) any later version.
   
   xtb is distributed in the hope that it will be useful,
   but WITHOUT ANY WARRANTY; without even the implied warranty of
   MERCHANTABILITY or FITNESS FOR A PARTICULAR PURPOSE.  See the
   GNU Lesser General Public License for more details.
   
   Cite this work as:
   * C. Bannwarth, E. Caldeweyher, S. Ehlert, A. Hansen, P. Pracht,
     J. Seibert, S. Spicher, S. Grimme, WIREs Comput. Mol. Sci., 2020, 11,
     e01493. DOI: 10.1002/wcms.1493
   
   for GFN2-xTB:
   * C. Bannwarth, S. Ehlert and S. Grimme., J. Chem. Theory Comput., 2019,
     15, 1652-1671. DOI: 10.1021/acs.jctc.8b01176
   for GFN1-xTB:
   * S. Grimme, C. Bannwarth, P. Shushkov, J. Chem. Theory Comput., 2017,
     13, 1989-2009. DOI: 10.1021/acs.jctc.7b00118
   for GFN0-xTB:
   * P. Pracht, E. Caldeweyher, S. Ehlert, S. Grimme, ChemRxiv, 2019, preprint.
     DOI: 10.26434/chemrxiv.8326202.v1
   for GFN-FF:
   * S. Spicher and S. Grimme, Angew. Chem. Int. Ed., 2020, 59, 15665-15673.
     DOI: 10.1002/anie.202004239
   
   for ALPB and GBSA implicit solvation:
   * S. Ehlert, M. Stahn, S. Spicher, S. Grimme, J. Chem. Theory Comput.,
     2021, 17, 4250-4261. DOI: 10.1021/acs.jctc.1c00471
   
   for DFT-D4:
   * E. Caldeweyher, C. Bannwarth and S. Grimme, J. Chem. Phys., 2017,
     147, 034112. DOI: 10.1063/1.4993215
   * E. Caldeweyher, S. Ehlert, A. Hansen, H. Neugebauer, S. Spicher,
     C. Bannwarth and S. Grimme, J. Chem. Phys., 2019, 150, 154122.
     DOI: 10.1063/1.5090222
   * E. Caldeweyher, J.-M. Mewes, S. Ehlert and S. Grimme, Phys. Chem. Chem. Phys.
     2020, 22, 8499-8512. DOI: 10.1039/D0CP00502A
   
   for sTDA-xTB:
   * S. Grimme and C. Bannwarth, J. Chem. Phys., 2016, 145, 054103.
     DOI: 10.1063/1.4959605
   
   in the mass-spec context:
   * V. Asgeirsson, C. Bauer and S. Grimme, Chem. Sci., 2017, 8, 4879.
     DOI: 10.1039/c7sc00601b
   * J. Koopman and S. Grimme, ACS Omega 2019, 4, 12, 15120-15133.
     DOI: 10.1021/acsomega.9b02011
   
   for metadynamics refer to:
   * S. Grimme, J. Chem. Theory Comput., 2019, 155, 2847-2862
     DOI: 10.1021/acs.jctc.9b00143
   
   for SPH calculations refer to:
   * S. Spicher and S. Grimme, J. Chem. Theory Comput., 2021, 17, 1701-1714
     DOI: 10.1021/acs.jctc.0c01306
   
   with help from (in alphabetical order)
   P. Atkinson, C. Bannwarth, F. Bohle, G. Brandenburg, E. Caldeweyher
   M. Checinski, S. Dohm, S. Ehlert, S. Ehrlich, I. Gerasimov, C. Hölzer
   A. Katbashev, J. Koopman, C. Lavigne, S. Lehtola, F. März, M. Müller,
   F. Musil, H. Neugebauer, J. Pisarek, C. Plett, P. Pracht, F. Pultar,
   J. Seibert, P. Shushkov, S. Spicher, M. Stahn, M. Steiner, T. Strunk,
   J. Stückrath, T. Rose, and J. Unsleber
   
 * started run on 2026/04/17 at 12:14:17.104     

           -------------------------------------------------
          |                Calculation Setup                |
           -------------------------------------------------

          program call               : /usr/bin/xtb random_d1.90_008_m1_XTB.xyz --grad -c 0 -u 0 -P 1 --namespace random_d1.90_008_m1 --input random_d1.90_008_m1_XTB.input.tmp --acc 0.200000
          calculation namespace      : random_d1.90_008_m1
          coordinate file            : random_d1.90_008_m1_XTB.xyz
          omp threads                :                     1

   ID    Z sym.   atoms
    1    5 B      1-12

molecular fragmentation (1/2 indicates fragments):
111111212212
# atoms in fragment 1/2:     8     4
 fragment masses (1/2) :       86.49       43.24
CMA distance (Bohr)    :   5.103
constraining FC (au)   :  0.0500

           -------------------------------------------------
          |                 G F N 2 - x T B                 |
           -------------------------------------------------

        Reference                      10.1021/acs.jctc.8b01176
      * Hamiltonian:
        H0-scaling (s, p, d)           1.850000    2.230000    2.230000
        zeta-weighting                 0.500000
      * Dispersion:
        s8                             2.700000
        a1                             0.520000
        a2                             5.000000
        s9                             5.000000
      * Repulsion:
        kExp                           1.500000    1.000000
        rExp                           1.000000
      * Coulomb:
        alpha                          2.000000
        third order                    shell-resolved
        anisotropic                    true
        a3                             3.000000
        a5                             4.000000
        cn-shift                       1.200000
        cn-exp                         4.000000
        max-rad                        5.000000

q/qsh data taken from xtbrestart
CAMM data taken from xtbrestart

          ...................................................
          :                      SETUP                      :
          :.................................................:
          :  # basis functions                  48          :
          :  # atomic orbitals                  48          :
          :  # shells                           24          :
          :  # electrons                        36          :
          :  max. iterations                   250          :
          :  Hamiltonian                  GFN2-xTB          :
          :  restarted?                       true          :
          :  GBSA solvation                  false          :
          :  PC potential                    false          :
          :  electronic temp.          300.0000000     K    :
          :  accuracy                    0.2000000          :
          :  -> integral cutoff          0.3198970E+02      :
          :  -> integral neglect         0.2000000E-08      :
          :  -> SCF convergence          0.2000000E-06 Eh   :
          :  -> wf. convergence          0.2000000E-04 e    :
          :  Broyden damping             0.4000000          :
          ...................................................

 iter      E             dE          RMSdq      gap      omega  full diag
   1    -13.4629209 -0.134629E+02  0.112E+00    0.15       0.0  T
   2    -12.2670875  0.119583E+01  0.757E+00    0.09       1.0  T
   3    -13.4412127 -0.117413E+01  0.123E+00    0.20       1.0  T
   4    -12.8765979  0.564615E+00  0.539E+00    0.08       1.0  T
   5    -13.3592900 -0.482692E+00  0.225E+00    0.06       1.0  T
   6    -13.0492445  0.310046E+00  0.477E+00    0.02       1.0  T
   7    -13.2975769 -0.248332E+00  0.297E+00    0.06       1.0  T
   8    -13.3715649 -0.739880E-01  0.225E+00    0.10       1.0  T
   9    -13.4107095 -0.391446E-01  0.165E+00    0.11       1.0  T
  10    -13.4384721 -0.277625E-01  0.119E+00    0.11       1.0  T
  11    -13.4621731 -0.237011E-01  0.546E-01    0.12       1.0  T
  12    -13.4647269 -0.255378E-02  0.503E-01    0.14       1.0  T
  13    -13.4631651  0.156178E-02  0.553E-01    0.15       1.0  T
[...]
    25. A(B   3,B   0,B   7)           83.21 -0.000066   -0.19     83.02   
    26. A(B   6,B   0,B   7)          122.36  0.000237   -0.77    121.59   
    27. A(B   4,B   0,B   9)           51.68  0.000157   -0.54     51.13   
    28. A(B   4,B   0,B   6)           99.12  0.000485   -0.44     98.68   
    29. A(B   2,B   0,B   9)          116.49  0.000006   -0.21    116.28   
    30. A(B   6,B   0,B  11)           40.10 -0.000194   -0.42     39.67   
    31. A(B   2,B   0,B   4)           66.32 -0.000188    0.43     66.75   
    32. A(B   2,B   0,B   6)          124.63  0.000307   -0.26    124.37   
    33. A(B   2,B   0,B   7)           30.81  0.000336    0.07     30.88   
    34. A(B   6,B   0,B   9)           61.14  0.000308   -0.79     60.35   
    35. A(B   4,B   0,B  11)          120.23  0.000374   -0.93    119.30   
    36. A(B   3,B   0,B  11)           86.79  0.000239   -0.87     85.92   
    37. A(B   7,B   0,B   9)           88.06 -0.000368   -0.10     87.96   
    38. A(B   3,B   0,B   4)           82.42 -0.000006   -0.23     82.18   
    39. A(B   3,B   0,B   9)           82.66  0.000245   -0.80     81.87   
    40. A(B   9,B   0,B  11)           68.70  0.000224   -0.50     68.20   
    41. A(B   3,B   0,B   6)           48.04  0.000407   -0.39     47.65   
    42. A(B   4,B   0,B   7)           36.47 -0.000535    0.34     36.80   
    43. A(B   7,B   1,B  11)          125.00  0.000224   -0.61    124.39   
    44. A(B   0,B   2,B  10)          131.05 -0.000022   -0.17    130.88   
    45. A(B   0,B   2,B   7)           54.26  0.000114   -0.14     54.12   
    46. A(B   7,B   2,B  10)          150.51  0.000168   -0.17    150.34   
    47. A(B   0,B   3,B   6)           72.66 -0.000485    0.36     73.02   
    48. A(B   5,B   3,B   6)          144.28 -0.000093    0.06    144.34   
    49. A(B   0,B   3,B   4)           47.16 -0.000152    0.38     47.54   
    50. A(B   4,B   3,B   6)           91.81 -0.000082    0.04     91.85   
    51. A(B   4,B   3,B   5)           57.85 -0.000020    0.09     57.94   
    52. A(B   0,B   3,B   5)           72.61  0.000355   -0.80     71.81   
    53. A(B   0,B   4,B   9)           69.20 -0.000536    0.55     69.76   
    54. A(B   5,B   4,B   9)          114.96  0.000391   -0.57    114.39   
    55. A(B   0,B   4,B   3)           50.42  0.000157   -0.15     50.27   
    56. A(B   3,B   4,B   7)           96.49  0.000459   -0.89     95.60   
    57. A(B   0,B   4,B   7)          101.65  0.000827   -1.18    100.47   
    58. A(B   3,B   4,B   5)           40.99  0.000451   -0.46     40.53   
    59. A(B   0,B   4,B   5)           64.56  0.000725   -1.31     63.24   
    60. A(B   5,B   4,B   7)           55.61  0.000009   -0.74     54.87   
    61. A(B   3,B   4,B   9)           74.41 -0.000057   -0.25     74.16   
    62. A(B   7,B   4,B   9)          169.86  0.000375   -0.34    169.52   
    63. A(B   3,B   5,B   4)           81.17 -0.000431    0.36     81.53   
    64. A(B   0,B   6,B   3)           59.30  0.000078    0.03     59.33   
    65. A(B   0,B   6,B   8)           89.02  0.000055    0.20     89.22   
    66. A(B   3,B   6,B   8)          134.26  0.000064    0.27    134.53   
    67. A(B   1,B   7,B   4)           43.26 -0.000284    0.31     43.58   
    68. A(B   1,B   7,B   2)           93.97 -0.000458    0.44     94.41   
    69. A(B   0,B   7,B   4)           41.88 -0.000292    0.84     42.72   
    70. A(B   2,B   7,B   4)          134.07 -0.000667    0.94    135.01   
    71. A(B   0,B   7,B   1)            1.77  0.000008   -0.35      1.42   
    72. A(B   0,B   7,B   2)           94.93 -0.000450    0.06     95.00   
    73. A(B   6,B   8,B  11)           63.41  0.000166   -0.25     63.16   
    74. A(B   9,B   8,B  11)          119.59  0.000029   -0.67    118.92   
    75. A(B   6,B   8,B   9)           73.62 -0.000417    0.26     73.87   
    76. A(B   0,B   9,B   8)          100.85  0.000214    0.26    101.12   
    77. A(B   4,B   9,B   8)          159.78  0.000594    0.31    160.09   
    78. A(B   8,B   9,B  11)           30.36 -0.000201    0.33     30.69   
    79. A(B   0,B   9,B  11)           70.53  0.000422   -0.17     70.36   
    80. A(B   0,B   9,B   4)           59.12  0.000379   -0.01     59.11   
    81. A(B   4,B   9,B  11)          129.47  0.000791   -0.09    129.38   
    82. A(B   0,B  11,B   8)           70.79 -0.000478    0.98     71.77   
    83. A(B   0,B  11,B   1)           29.04 -0.000335   -0.02     29.02   
    84. A(B   8,B  11,B   9)           30.05  0.000172    0.34     30.39   
    85. A(B   1,B  11,B   9)           68.54 -0.000924    0.67     69.20   
    86. A(B   0,B  11,B   9)           40.77 -0.000645    0.67     41.44   
    87. A(B   1,B  11,B   8)           97.83 -0.000760    1.22     99.06   
    88. D(B   7,B   2,B   0,B  11)   -126.65 -0.000493    1.77   -124.88   
    89. D(B   7,B   2,B   0,B   3)    -99.22  0.000107    0.51    -98.71   
    90. D(B   7,B   2,B   0,B   6)    -96.43 -0.000154    0.94    -95.49   
    91. D(B  10,B   2,B   0,B   4)   -154.43 -0.000090    0.74   -153.69   
    92. D(B   7,B   2,B   0,B   4)    -11.74  0.000191    0.15    -11.59   
    93. D(B  10,B   2,B   0,B  11)     90.66 -0.000773    2.36     93.02   
    94. D(B  10,B   2,B   0,B   9)   -167.26  0.000047    0.29   -166.97   
    95. D(B   7,B   2,B   0,B   9)    -24.57  0.000327   -0.30    -24.87   
    96. D(B   5,B   3,B   0,B   2)      5.40  0.000175   -0.54      4.86   
    97. D(B   5,B   3,B   0,B   9)   -114.11  0.000220   -0.57   -114.68   
    98. D(B   5,B   3,B   0,B   7)    -25.20 -0.000173   -0.74    -25.94   
    99. D(B   4,B   3,B   0,B   9)    -52.15 -0.000142    0.56    -51.59   
   100. D(B   5,B   3,B   0,B  11)    176.96  0.000025    0.04    177.00   
   101. D(B   4,B   3,B   0,B  11)   -121.08 -0.000337    1.17   -119.91   
   102. D(B   4,B   3,B   0,B   7)     36.76 -0.000536    0.40     37.16   
   103. D(B   5,B   3,B   0,B   4)    -61.96  0.000362   -1.14    -63.10   
   104. D(B   5,B   3,B   0,B   6)   -171.51 -0.000145   -0.04   -171.56   
   105. D(B   7,B   4,B   0,B   2)     10.10  0.000066   -0.33      9.77   
   106. D(B   7,B   4,B   0,B   3)     88.81 -0.000048   -0.25     88.56   
   107. D(B   5,B   4,B   3,B   0)    -95.82 -0.000678    2.02    -93.80   
   108. D(B   7,B   4,B   3,B   0)    -99.77 -0.000693    0.76    -99.01   
   109. D(B   7,B   4,B   3,B   5)     -3.95 -0.000014   -1.26     -5.21   
   110. D(B   7,B   4,B   0,B  11)    170.59  0.000148   -1.49    169.10   
   111. D(B   5,B   4,B   3,B   6)   -159.97  0.000011    0.34   -159.63   
   112. D(B   5,B   4,B   0,B   3)     46.27  0.000110    0.61     46.87   
   113. D(B   5,B   4,B   0,B   2)    -32.45  0.000224    0.52    -31.93   
   114. D(B   7,B   4,B   0,B   9)    175.43  0.000256   -1.06    174.37   
   115. D(B   5,B   4,B   0,B   6)     91.47  0.000376    0.50     91.97   
   116. D(B   9,B   4,B   3,B   0)     75.66 -0.000664    1.00     76.66   
   117. D(B   5,B   4,B   0,B   7)    -42.55  0.000158    0.85    -41.69   
   118. D(B   5,B   4,B   0,B  11)    128.04  0.000306   -0.64    127.40   
   119. D(B   5,B   4,B   0,B   9)    132.89  0.000414   -0.21    132.68   
   120. D(B   9,B   4,B   3,B   5)    171.48  0.000014   -1.02    170.46   
   121. D(B   7,B   4,B   3,B   6)   -163.92 -0.000003   -0.92   -164.84   
   122. D(B   3,B   5,B   4,B   0)    -58.12  0.000457   -1.31    -59.43   
   123. D(B   3,B   5,B   4,B   9)     -9.05 -0.000011   -1.09    -10.15   
   124. D(B   4,B   5,B   3,B   6)     35.89 -0.000070    0.21     36.10   
   125. D(B   3,B   5,B   4,B   7)    175.25 -0.000012   -0.95    174.29   
   126. D(B   4,B   5,B   3,B   0)     49.85 -0.000381    1.40     51.25   
   127. D(B   8,B   6,B   3,B   4)     -8.94 -0.000455    1.11     -7.83   
   128. D(B   8,B   6,B   3,B   0)    -52.68 -0.000146    0.14    -52.54   
   129. D(B   3,B   6,B   0,B   7)    -40.70 -0.000159   -0.17    -40.87   
   130. D(B   0,B   6,B   3,B   4)     43.73 -0.000309    0.97     44.71   
   131. D(B   0,B   6,B   3,B   5)     13.96 -0.000246    0.95     14.90   
   132. D(B   8,B   6,B   0,B   9)     37.85  0.000270   -0.28     37.57   
   133. D(B   8,B   6,B   0,B  11)    -52.76  0.000158    0.26    -52.50   
   134. D(B   3,B   6,B   0,B   2)     -3.64  0.000366   -0.72     -4.37   
   135. D(B   8,B   6,B   0,B   4)     74.19  0.000268   -0.68     73.51   
   136. D(B   8,B   6,B   3,B   5)    -38.72 -0.000392    1.08    -37.64   
   137. D(B   3,B   6,B   0,B   4)    -71.09  0.000301   -0.62    -71.72   
   138. D(B   3,B   6,B   0,B   9)   -107.43  0.000303   -0.23   -107.66   
   139. D(B   3,B   6,B   0,B  11)    161.96  0.000192    0.32    162.28   
   140. D(B   2,B   7,B   1,B  11)    139.49  0.000529   -0.35    139.14   
   141. D(B   4,B   7,B   0,B   2)   -161.73 -0.000091   -0.53   -162.25   
   142. D(B   2,B   7,B   0,B   4)    161.73  0.000091    0.53    162.25   
   143. D(B   2,B   7,B   0,B   6)    104.53  0.000306    0.18    104.71   
   144. D(B   2,B   7,B   0,B   3)     75.30 -0.000007    0.47     75.77   
   145. D(B   4,B   7,B   0,B   9)     -3.58  0.000192   -0.76     -4.34   
   146. D(B   2,B   7,B   0,B   9)    158.14  0.000283   -0.24    157.91   
   147. D(B   2,B   7,B   0,B  11)    141.64  0.000585   -2.46    139.18   
   148. D(B   4,B   7,B   0,B   3)    -86.43 -0.000099   -0.06    -86.48   
   149. D(B   4,B   7,B   1,B  11)    -21.16  0.000465   -1.36    -22.52   
   150. D(B   4,B   7,B   0,B  11)    -20.09  0.000494   -2.99    -23.07   
   151. D(B   0,B   7,B   4,B   3)     50.86  0.000223   -0.18     50.68   
   152. D(B   0,B   7,B   4,B   5)     47.72  0.000183   -1.02     46.71   
   153. D(B   2,B   7,B   4,B   3)     25.08  0.000649    0.18     25.26   
   154. D(B   2,B   7,B   4,B   0)    -25.77  0.000426    0.35    -25.42   
   155. D(B   2,B   7,B   4,B   9)     -0.75 -0.000185    2.22      1.46   
   156. D(B   2,B   7,B   4,B   5)     21.95  0.000609   -0.66     21.29   
   157. D(B   1,B   7,B   2,B   0)     -1.49 -0.000003    0.47     -1.02   
   158. D(B   1,B   7,B   2,B  10)    110.30  0.000125    0.30    110.60   
   159. D(B   0,B   7,B   2,B  10)    111.79  0.000129   -0.17    111.62   
   160. D(B   4,B   7,B   2,B   0)     16.94 -0.000380   -0.02     16.92   
   161. D(B   0,B   7,B   4,B   9)     25.02 -0.000611    1.86     26.88   
   162. D(B   4,B   7,B   2,B  10)    128.73 -0.000251   -0.19    128.54   
   163. D(B   0,B   7,B   1,B  11)     16.66  0.000392   -0.75     15.91   
   164. D(B   9,B   8,B   6,B   0)    -42.98  0.000475   -0.44    -43.41   
   165. D(B   9,B   8,B   6,B   3)      0.17  0.000622   -0.40     -0.23   
   166. D(B  11,B   8,B   6,B   0)     93.30  0.000790   -0.77     92.54   
   167. D(B  11,B   8,B   6,B   3)    136.45  0.000937   -0.73    135.72   
   168. D(B  11,B   9,B   8,B   6)     45.30 -0.000232   -0.36     44.94   
   169. D(B   0,B   9,B   8,B   6)     48.03  0.000039    0.40     48.43   
   170. D(B   0,B   9,B   8,B  11)      2.73  0.000271    0.75      3.49   
   171. D(B   4,B   9,B   8,B   6)     40.51 -0.000061    0.41     40.92   
   172. D(B   4,B   9,B   8,B  11)     -4.79  0.000171    0.77     -4.02   
   173. D(B   8,B   9,B   4,B   3)    -44.40 -0.000143    0.02    -44.38   
   174. D(B   8,B   9,B   4,B   7)    -17.68  0.000705   -2.21    -19.89   
   175. D(B   8,B   9,B   4,B   5)    -38.25 -0.000077    0.80    -37.45   
   176. D(B   0,B   9,B   4,B   3)    -53.02 -0.000217    0.07    -52.94   
   177. D(B   0,B   9,B   4,B   7)    -26.30  0.000630   -2.15    -28.45   
   178. D(B   0,B   9,B   4,B   5)    -46.87 -0.000152    0.86    -46.01   
   179. D(B   8,B   9,B   0,B   2)   -161.96 -0.000273    0.90   -161.06   
   180. D(B   8,B   9,B   0,B   7)   -174.26 -0.000242    0.75   -173.51   
   181. D(B   8,B   9,B   4,B   0)      8.62  0.000075   -0.06      8.56   
   182. D(B   8,B   9,B   0,B   4)   -176.98 -0.000057    0.13   -176.84   
   183. D(B   8,B   9,B   0,B  11)     -1.47 -0.000133   -0.25     -1.72   
   184. D(B   4,B   9,B   0,B   6)    131.78  0.000229    0.24    132.02   
   185. D(B   4,B   9,B   0,B   3)     86.11 -0.000211    0.36     86.48   
   186. D(B   4,B   9,B   0,B   2)     15.02 -0.000216    0.77     15.78   
   187. D(B   4,B   9,B   0,B   7)      2.71 -0.000185    0.62      3.33   
   188. D(B   4,B   9,B   0,B  11)    175.51 -0.000076   -0.38    175.13   
   189. D(B   8,B  11,B   9,B   4)    177.86  0.000112    0.34    178.20   
   190. D(B   1,B  11,B   9,B   0)    -10.71  0.000186    0.06    -10.65   
   191. D(B   1,B  11,B   9,B   4)    -15.71  0.000025   -0.33    -16.04   
   192. D(B   0,B  11,B   9,B   8)    177.15 -0.000273   -0.73    176.42   
   193. D(B   9,B  11,B   8,B   6)    -49.69  0.000513   -0.39    -50.07   
   194. D(B   1,B  11,B   8,B   6)    -62.42  0.000537   -1.44    -63.86   
   195. D(B   1,B  11,B   8,B   9)    -12.73  0.000024   -1.06    -13.78   
   196. D(B   0,B  11,B   8,B   6)    -51.66  0.000345   -0.83    -52.49   
   197. D(B   0,B  11,B   8,B   9)     -1.97 -0.000169   -0.45     -2.42   
   198. D(B   9,B  11,B   1,B   7)     13.51 -0.000322    0.76     14.27   
   199. D(B   8,B  11,B   1,B   7)     20.31 -0.000256    1.25     21.57   
   200. D(B   0,B  11,B   1,B   7)     -0.97 -0.000031    0.41     -0.57   
   201. D(B   8,B  11,B   0,B   7)     19.25 -0.000201    2.40     21.65   
   202. D(B   8,B  11,B   0,B   4)      5.59  0.000250    0.62      6.21   
   203. D(B   8,B  11,B   0,B   9)      1.51  0.000157    0.30      1.81   
   204. D(B   1,B  11,B   0,B   6)   -130.84  0.000506   -0.62   -131.45   
   205. D(B   0,B  11,B   9,B   4)     -4.99 -0.000161   -0.39     -5.38   
   206. D(B   1,B  11,B   0,B   3)   -117.50  0.000451   -0.70   -118.20   
   207. D(B   1,B  11,B   0,B   2)    -90.82  0.001011   -1.79    -92.61   
   208. D(B   1,B  11,B   0,B   7)    176.87 -0.000076    2.05    178.92   
   209. D(B   1,B  11,B   9,B   8)    166.44 -0.000088   -0.67    165.76   
   210. D(B   1,B  11,B   0,B   4)    163.20  0.000376    0.28    163.47   
   211. D(B   1,B  11,B   0,B   9)    159.12  0.000282   -0.04    159.08   
    ----------------------------------------------------------------------------

Geometry step timings:
Preparation and reading OPT file:      0.000 s ( 0.258 %)
Internal coordinates            :      0.000 s ( 0.457 %)
B/P matrices and projection     :      0.004 s (23.741 %)
Hessian update/contruction      :      0.004 s (26.175 %)
Making the step                 :      0.005 s (30.515 %)
Converting the step to Cartesian:      0.001 s ( 4.147 %)
Storing new data                :      0.000 s ( 0.476 %)
Checking convergence            :      0.000 s ( 0.889 %)
Final printing                  :      0.002 s (13.335 %)
Total time                      :      0.016 s

Time for energy+gradient        :      0.060 s
Time for complete geometry iter :      0.078 s




    ----------------------------------------------------------------------------
                                  WARNING !!!
       The optimization did not converge but reached the maximum number of
       optimization cycles.
       Please check your results very carefully.
    ----------------------------------------------------------------------------



--------------------------------
SUGGESTED CITATIONS FOR THIS RUN
--------------------------------

Below you find a list of papers that are relevant to this ORCA run
We neither can nor want to force you to cite these papers, but we appreciate if you do
You receive ORCA, which is the product of decades of hard work by many enthusiastic individuals, for free
The only thing we kindly ask in return is that you cite our papers,
We deeply appreciate it, if you show your appreciation for ORCA by not just citing the generic ORCA reference.

Please note that relegating all ORCA citations to the supporting information does *not* help us.
SI sections are not indexed - citations you put there will not count into any citation statistics
But we need these citations in order to attract the funding resources that allow us to do what we are doing

Therefore, if you are a happy ORCA user, please consider citing a few of the papers listed below in the main body of your paper

In addition to the list printed below, the program has created the file random_d1.90_008_m1.bibtex that contains the list in bibtex format
You can import this file easily into all common literature databanks and citation aid programs

It goes without saying that in many instances, there are alternative algorithms to achieve similar
results as the ones you have gotten from ORCA. It is, of course, also the case that in some instances
ORCA just re-implements algorithms worked out by others. We are fully aware of that and we are also
fully appreciative of our colleagues work. Hence this citation list should not be read as indicating
that the listed papers, which are focused on our own work, are the only ones worth citing. It simply
meant to make it easier for users to cite ORCA specific papers. It is not a substitute for doing your
own literature research and citing the relevant literature in a scientifically appropriate manner.

List of essential papers. We consider these as the minimum necessary citations

  1. Bannwarth, C.; Ehlert, S.; Grimme, S.
     GFN2-xTB—An Accurate and Broadly Parametrized Self-Consistent Tight-Binding Quantum Chemical Method with Multipole Electrostatics and Density-Dependent Dispersion Contributions
     J. Chem. Theory Comput. 2019 15(3), 1652-1671
     doi.org/10.1021/acs.jctc.8b01176
  2. Neese, F.
     Software update: the ORCA program system, version 6.0
     WIRES Comput. Molec. Sci. 2025 15(1), e70019
     doi.org/10.1002/wcms.70019

List of papers to cite with high priority. The work reported in these papers was absolutely
necessary for this run to complete.
Our perspective: the developers of density functionals and basis sets usually get cited in chemistry papers
Good! But without the algorithms to do something with them, the functionals or basis sets would not do anything.
Hence, in our opinion, the algorithm design and method developments papers are equally worthy of getting cited

  1. Bannwarth, C.; Caldeweyher, E.; Ehlert, S.; Hansen, A.; Pracht, P.; Seibert, J.; Spicher, S.; Grimme, S.
     Extended tight-binding quantum chemistry methods
     WIRES Comput. Molec. Sci. 2020 11(2), e1493
     doi.org/10.1002/wcms.1493

List of suggested additional citations. These are papers that are important in the 'surrounding' of 
of this run, or papers that preceded the highly important papers. If you like your results we are grateful for a citation.

  1. Neese, F.
     The ORCA program system
     WIRES Comput. Molec. Sci. 2012 2(1), 73-78
     doi.org/10.1002/wcms.81
  2. Neese, F.
     Software update: the ORCA program system, version 4.0
     WIRES Comput. Molec. Sci. 2018 8(1), 1-6
     doi.org/10.1002/wcms.1327
  3. Neese, F.; Wennmohs, F.; Becker, U.; Riplinger, C.
     The ORCA quantum chemistry program package
     J. Chem. Phys. 2020 152(22), 224108
     doi.org/10.1063/5.0004608
  4. Neese, F.
     Software update: The ORCA program system—Version 5.0
     WIRES Comput. Molec. Sci. 2022 12(1), e1606
     doi.org/10.1002/wcms.1606

List of optional additional citations

  1. Neese, F.
     Approximate second-order SCF convergence for spin unrestricted wavefunctions
     Chem. Phys. Lett. 2000 325(1-3), 93-98
     doi.org/10.1016/s0009-2614(00)00662-x

Timings for individual modules:

Sum of individual times          ...        3.684 sec (=   0.061 min)
Geometry relaxation              ...        0.809 sec (=   0.013 min)  22.0 %
XTB module                       ...        2.875 sec (=   0.048 min)  78.0 %
                             ****ORCA TERMINATED NORMALLY****
TOTAL RUN TIME: 0 days 0 hours 0 minutes 4 seconds 173 msec
