
                                 *****************
                                 * O   R   C   A *
                                 *****************

                                            #,                                       
                                            ###                                      
                                            ####                                     
                                            #####                                    
                                            ######                                   
                                           ########,                                 
                                     ,,################,,,,,                         
                               ,,#################################,,                 
                          ,,##########################################,,             
                       ,#########################################, ''#####,          
                    ,#############################################,,   '####,        
                  ,##################################################,,,,####,       
                ,###########''''           ''''###############################       
              ,#####''   ,,,,##########,,,,          '''####'''          '####       
            ,##' ,,,,###########################,,,                        '##       
           ' ,,###''''                  '''############,,,                           
         ,,##''                                '''############,,,,        ,,,,,,###''
      ,#''                                            '''#######################'''  
     '                                                          ''''####''''         
             ,#######,   #######,   ,#######,      ##                                
            ,#'     '#,  ##    ##  ,#'     '#,    #''#        ,####,    ,#,          
            ##       ##  ##   ,#'  ##            #'  '#       #'       ,# #          
            ##       ##  #######   ##           ,######,      #####,      #          
            '#,     ,#'  ##    ##  '#,     ,#' ,#      #,     #,   #      #          
             '#######'   ##     ##  '#######'  #'      '#     '####' #    #          



                #########################################################
                #                        -***-                          #
                #          Department of theory and spectroscopy        #
                #                                                       #
                #                      Frank Neese                      #
                #                                                       #
                #     Directorship, Architecture, Infrastructure        #
                #                    SHARK, DRIVERS                     #
                #        Core code/Algorithms in most modules           #
                #                                                       #
                #        Max Planck Institute fuer Kohlenforschung      #
                #                Kaiser Wilhelm Platz 1                 #
                #                 D-45470 Muelheim/Ruhr                 #
                #                      Germany                          #
                #                                                       #
                #                  All rights reserved                  #
                #                        -***-                          #
                #########################################################


                         Program Version 6.1.1  -  RELEASE   -
                                (GIT: $487d211c$)
                          ($2025-11-21 10:33:24 +0100$)
                                                                         
                                  - NO-DMRG VERSION -                    
                                                                         


 With contributions from (in alphabetic order):
[Max-Planck-Institut fuer Kohlenforschung]                               
  Daniel Aravena         : Magnetic Suceptibility                        
  Michael Atanasov       : Ab Initio Ligand Field Theory (pilot matlab implementation)
  Alexander A. Auer      : GIAO ZORA, VPT2 properties, NMR spectrum      
  Ute Becker             : All parallelization in ORCA, NUMFREQ, NUMCALC 
  Giovanni Bistoni       : ED, misc. LED, open-shell LED, HFLD           
  Dmytro Bykov           : pre 5.0 version of the SCF Hessian            
  Marcos Casanova-Páez   : Triplet and SCS-CIS(D). UHF-(DLPNO)-IP/EA/STEOM-CCSD. UHF-CVS-IP/STEOM-CCSD   
  Vijay G. Chilkuri      : MRCI spin determinant printing, contributions to CSF-ICE 
  Pauline Colinet        : FMM embedding                                 
  Dipayan Datta          : RHF DLPNO-CCSD density                        
  Achintya Kumar Dutta   : EOM-CC, STEOM-CC                              
  Nicolas Foglia         : Exact transition moments, OPA infrastructure, MCD improvements    
  Dmitry Ganyushin       : Spin-Orbit,Spin-Spin,Magnetic field MRCI      
  Miquel Garcia-Rates    : C-PCM and meta-GGA Hessian, CCSD/C-PCM, Gaussian charge scheme 
  Tiago L. C. Gouveia    : GS-ROHF, GS-ROCIS                             
  Yang Guo               : DLPNO-NEVPT2, F12-NEVPT2, CIM, IAO-localization        
  Andreas Hansen         : Spin unrestricted coupled pair/coupled cluster methods 
  Ingolf Harden          : AUTO-CI MPn and infrastructure                
  Benjamin Helmich-Paris : MC-RPA, TRAH-(SCF,CASSCF), AVAS, COSX integrals, SCF dyn. polar., MC-PDFT, srDFT 
  Lee Huntington         : MR-EOM, pCC                                   
  Robert Izsak           : Overlap fitted RIJCOSX, COSX-SCS-MP3, EOM     
  Riya Kayal             : Wick's Theorem for AUTO-CI, AUTO-CI UHF-CCSDT 
  Emily Kempfer          : AUTO-CI RHF CISDT and CCSDT, approximate NEVPT4
  Christian Kollmar      : KDIIS, OOCD, Brueckner-CCSD(T), CCSD density, CASPT2, CASPT2-K, improved NEVPT2 
  Axel Koslowski         : Symmetry handling                             
  Simone Kossmann        : meta-GGA functionals, TD-DFT gradient, OOMP2, (MP2 Hessian; deprecated post 5.0) 
  Lucas Lang             : DCDCAS, Hyperfine gauge corrections, ICE-SOC+SSC
  Marvin Lechner         : AUTO-CI (C++ implementation), FIC-MRCC        
  Spencer Leger          : CASSCF response                               
  Dagmar Lenk            : GEPOL surface, SMD, ORCA-2-JSON               
  Dimitrios Liakos       : Extrapolation schemes; Compound Job, Property file
  Dimitrios Manganas     : Further ROCIS development; embedding schemes. LFT, Crystal Embedding 
  Dimitrios Pantazis     : SARC Basis sets                               
  Anastasios Papadopoulos: AUTO-CI, single reference methods and gradients 
  Taras Petrenko         : pre 6.0 DFT Hessian and TD-DFT gradient,  ECA, NRVS 
  Petra Pikulova         : Analytic Raman intensities                    
  Peter Pinski           : DLPNO-MP2, DLPNO-MP2 Gradient                 
  Shashank Vittal Rao    : ES-AILFT, MagRelax                            
  Christoph Reimann      : Effective Core Potentials                     
  Marius Retegan         : Local ZFS, SOC                                
  Christoph Riplinger    : Optimizer, TS searches, QM/MM, DLPNO-CCSD(T), (RO)-DLPNO pert. Triples 
  Michael Roemelt        : Original ROCIS implementation, recursive CI coupling coefficients
  Masaaki Saitow         : Open-shell DLPNO-CCSD energy and density      
  Barbara Sandhoefer     : DKH picture change effects                    
  Yorick L. A. Schmerwitz: GMF and freeze-and-release deltaSCF, NEB S-IDPP initial path                    
  Kantharuban Sivalingam : CASSCF convergence/infrastructure, NEVPT2, NEVPT3, NEVPT4(SD), FIC-MRCI and CEPA variants
  Bernardo de Souza      : ESD, SOC TD-DFT                               
  Georgi L. Stoychev     : AutoAux, RI-MP2 NMR, DLPNO-MP2 response, X2C  
  Van Anh Tran           : RI-MP2 g-tensors                              
  Willem Van den Heuvel  : Paramagnetic NMR                              
  Zikuan Wang            : NOTCH, Electric field optimization            
  Frank Wennmohs         : Technical directorship and infrastructure     
  Hang Xu                : AUTO-CI-Response properties                   
                                                                         
[FACCTs GmbH]                                                            
  Markus Bursch, Nicolas Foglia, Miquel Garcia-Rates, Ingolf Harden, Hagen Neugebauer, Anastasios Papadopoulos, 
  Christoph Riplinger, Bernardo de Souza, Georgi L. Stoychev                                                    
                                                                 
  APM, various basis sets, CI-OPT, improved COSX, DLPNO-Multilevel,           
  DOCKER, DRACO, updates on ESD, Fragmentator, GOAT, IRC, LR-CPCM, L-BFGS, MBIS, meta-GGA TD-DFT gradient, ML-optimized integration grids, 
  MM, NACMEs, nearIR, NEB, NEB-TS, NL-DFT gradient (VV10), 2- and 3-layer-ONIOM, interface openCOSMO-RS, QMMM,   
  Crystal-QMMM, RESP, rigid body optimization, SF, symmetry and pop. for TD-DFT, various functionals, SOLVATOR                                   
                                                                         
[Other institutions]                                                     
  V. Asgeirsson          : NEB                                           
  Christoph Bannwarth    : sTDA-DFT, sTD-DFT, PBEh-3c, B97-3c, D3        
  Giovanni Bistoni       : ETS/NOCV, ADLD/ADEX, COVALED                  
  Martin Brehm           : Molecular dynamics                            
  Ronald Cardenas        : ETS/NOCV                                      
  Martina Colucci        : COVALED                                       
  Sebastian Ehlert       : rSCAN, r2SCAN, r2SCAN-3c, D4, dhf basis sets  
  Marvin Friede          : D4 for Fr, Ra, Ac-Lr                          
  Lars Goerigk           : TD-DFT with DH, B97 family of functionals     
  Stefan Grimme          : VdW corrections, initial TS optimization, DFT functionals, gCP, sTDA/sTD-DF 
  Waldemar Hujo          : DFT-NL                                        
  H. Jonsson             : NEB                                           
  Holger Kruse           : gCP                                           
  Marcel Mueller         : wB97X-3c, vDZP basis set                      
  Hagen Neugebauer       : wr2SCAN, Native XTB                           
  Gianluca Regni         : ADLD/ADEX                                     
  Tobias Risthaus        : pre 6.0 range-separated hybrid DFT and stability analysis
  Lukas Wittmann         : regularized MP2, r2SCAN double-hybrids, wr2SCAN        
                                                                         
We gratefully acknowledge several colleagues who have allowed us to      
interface, adapt or use parts of their codes:                            
  Ed Valeev, F. Pavosevic, A. Kumar             : LibInt (2-el integral package), F12 methods 
  Garnet Chan, S. Sharma, J. Yang, R. Olivares  : DMRG                   
  Ulf Ekstrom                                   : XCFun DFT Library      
  Mihaly Kallay                                 : mrcc  (arbitrary order and MRCC methods)
  Frank Weinhold                                : gennbo (NPA and NBO analysis)           
  Simon Mueller                                 : openCOSMO-RS                            
  Christopher J. Cramer and Donald G. Truhlar   : smd solvation model                     
  S Lehtola, MJT Oliveira, MAL Marques          : LibXC Library                           
  Liviu Ungur et al                             : ANISO software                          


 Your calculation uses the libint2 library for the computation of 2-el integrals
 For citations please refer to: http://libint.valeyev.net

 Your ORCA version has been built with support for libXC version: 7.0.0
 For citations please refer to: https://libxc.gitlab.io

 This ORCA versions uses:
   CBLAS   interface :  Fast vector & matrix operations
   LAPACKE interface :  Fast linear algebra routines
   SCALAPACK package :  Parallel linear algebra routines
   Shared memory     :  Shared parallel matrices
   BLAS/LAPACK       :  OpenBLAS 0.3.29  USE64BITINT DYNAMIC_ARCH NO_AFFINITY Zen SINGLE_THREADED
        Core in use  :  Zen
   Copyright (c) 2011-2014, The OpenBLAS Project


  ***********************************
  * Starting time: Fri Apr 17 12:14:20 2026
  * Host name:     vmi3233575
  * Process ID:    334369
  * Working dir.:  /root/orca_b12_vps_pack/jobs/01_xtb/mult_1
  ***********************************

NOTE: MaxCore=500 MB was set to SCF,MP2,MDCI,CIPSI,MRCI,RASCI and CIS
      => If you want to overwrite this, your respective input block should be placed after the MaxCore statement


***************************************
The coordinates will be read from file: ../../../starts/random_d2.10_003.xyz
***************************************


Your calculation utilizes the semiempirical GFN2-xTB method
Please cite in your paper:
Bannwarth, C.; Ehlert S.; Grimme, S. J. Chem. Theory Comput. 2019, 15, 1652.
   

================================================================================

================================================================================
                                        WARNINGS
                       Please study these warnings very carefully!
================================================================================


WARNING: Geometry Optimization
  ===> : Switching off AutoStart
         For restart on a previous wavefunction, please use MOREAD

WARNING: Found dipole moment calculation with XTB calculation
  ===> : Switching off dipole moment calculation

Environment variable XTBEXE for xtb has been set!

================================================================================
                                       INPUT FILE
================================================================================
NAME = random_d2.10_003_m1.inp
|  1> ! GFN2-xTB TightSCF TightOpt
|  2> 
|  3> %pal
|  4>   nprocs 1
|  5> end
|  6> 
|  7> %maxcore 500
|  8> 
|  9> * xyzfile 0 1 ../../../starts/random_d2.10_003.xyz
| 10> 
| 11>                          ****END OF INPUT****
================================================================================

                       *****************************
                       * Geometry Optimization Run *
                       *****************************

Geometry optimization settings:
Update method            Update   .... BFGS
Choice of coordinates    CoordSys .... (2022) Redundant Internals
Initial Hessian          InHess   .... Almloef's Model
Max. no of cycles        MaxIter  .... 50

Convergence Tolerances:
Energy Change            TolE     ....  1.0000e-06 Eh
Max. Gradient            TolMAXG  ....  1.0000e-04 Eh/bohr
RMS Gradient             TolRMSG  ....  3.0000e-05 Eh/bohr
Max. Displacement        TolMAXD  ....  1.0000e-03 bohr
RMS Displacement         TolRMSD  ....  6.0000e-04 bohr
Strict Convergence                .... False

------------------------------------------------------------------------------
                        ORCA OPTIMIZATION COORDINATE SETUP
------------------------------------------------------------------------------

The optimization will be done in redundant internal coordinates (2022)
Making redundant internal coordinates   ...  (2022 redundants) done
Evaluating the initial hessian          ...  (Almloef) done
Evaluating the coordinates              ...  done
Calculating the B-matrix                .... done
Calculating the G-matrix                .... done
The number of degrees of freedom        ....  213

    -----------------------------------------------------------------
                    Redundant Internal Coordinates


    -----------------------------------------------------------------
         Definition                    Initial Value    Approx d2E/dq
    -----------------------------------------------------------------
      1. B(B   2,B   0)                  2.1042         0.060797   
      2. B(B   3,B   0)                  2.7036         0.010000   
      3. B(B   3,B   1)                  1.5391         0.484642   
      4. B(B   4,B   0)                  3.0137         0.010000   
      5. B(B   5,B   2)                  2.7381         0.010000   
      6. B(B   6,B   0)                  2.6277         0.010000   
      7. B(B   6,B   4)                  3.3600         0.010000   
      8. B(B   7,B   3)                  3.1092         0.010000   
      9. B(B   7,B   1)                  3.8773         0.010000   
     10. B(B   8,B   5)                  1.5713         0.430718   
     11. B(B   8,B   2)                  3.0523         0.010000   
     12. B(B   9,B   7)                  3.9533         0.010000   
     13. B(B   9,B   6)                  3.8701         0.010000   
     14. B(B   9,B   0)                  3.4877         0.010000   
     15. B(B   9,B   4)                  1.5185         0.522825   
     16. B(B  10,B   8)                  1.7389         0.232684   
     17. B(B  10,B   0)                  3.1727         0.010000   
     18. B(B  10,B   5)                  1.7573         0.217486   
     19. B(B  10,B   7)                  3.4516         0.010000   
     20. B(B  10,B   2)                  2.4411         0.017634   
     21. B(B  11,B  10)                  1.8418         0.159443   
     22. B(B  11,B   7)                  3.4605         0.010000   
     23. A(B   2,B   0,B   3)          104.3068         0.165458   
     24. A(B   2,B   0,B   6)          166.2004         0.170434   
     25. A(B   6,B   0,B  10)          142.2766         0.122494   
     26. A(B   4,B   0,B   6)           72.7456         0.127227   
     27. A(B   4,B   0,B   9)           25.7105         0.107700   
     28. A(B   2,B   0,B  10)           50.2678         0.140761   
     29. A(B   3,B   0,B   9)          106.6522         0.113202   
     30. A(B   3,B   0,B   6)           86.7755         0.138474   
     31. A(B   4,B   0,B  10)           92.0813         0.113298   
     32. A(B   3,B   0,B   4)          130.3629         0.124892   
     33. A(B   2,B   0,B   4)          104.8322         0.148077   
     34. A(B   3,B   0,B  10)           77.0984         0.120447   
     35. A(B   9,B   0,B  10)           75.3309         0.105384   
     36. A(B   2,B   0,B   9)          106.8140         0.128836   
     37. A(B   6,B   0,B   9)           77.1035         0.114777   
     38. A(B   3,B   1,B   7)           49.6040         0.135094   
     39. A(B   0,B   2,B   8)          122.3927         0.146214   
     40. A(B   5,B   2,B  10)           39.1404         0.145142   
     41. A(B   0,B   2,B   5)          116.0367         0.163294   
     42. A(B   0,B   2,B  10)           88.2109         0.184101   
     43. A(B   8,B   2,B  10)           34.6986         0.132235   
     44. A(B   5,B   2,B   8)           30.8848         0.122776   
     45. A(B   0,B   3,B   7)           92.1113         0.122152   
     46. A(B   0,B   3,B   1)          153.6087         0.211314   
     47. A(B   1,B   3,B   7)          108.2478         0.176295   
     48. A(B   0,B   4,B   9)           94.8603         0.185144   
     49. A(B   0,B   4,B   6)           48.3198         0.109794   
     50. A(B   6,B   4,B   9)           97.7864         0.161092   
     51. A(B   2,B   5,B  10)           61.2679         0.188139   
     52. A(B   8,B   5,B  10)           62.6957         0.350575   
     53. A(B   2,B   5,B   8)           85.6699         0.204721   
     54. A(B   4,B   6,B   9)           22.8765         0.099202   
     55. A(B   0,B   6,B   9)           61.4554         0.107755   
     56. A(B   0,B   6,B   4)           58.9347         0.117664   
     57. A(B   1,B   7,B   3)           22.1482         0.101493   
     58. A(B  10,B   7,B  11)           30.9064         0.102290   
     59. A(B   3,B   7,B  11)           88.8446         0.106667   
     60. A(B   3,B   7,B  10)           68.0127         0.106798   
     61. A(B   1,B   7,B  10)           77.8956         0.098398   
     62. A(B   9,B   7,B  10)           66.4212         0.097822   
     63. A(B   1,B   7,B   9)          111.1579         0.095193   
     64. A(B   9,B   7,B  11)           88.3151         0.097757   
     65. A(B   3,B   7,B   9)           89.0244         0.100728   
     66. A(B   1,B   7,B  11)           88.7900         0.098329   
     67. A(B   2,B   8,B   5)           63.4453         0.178117   
     68. A(B   2,B   8,B  10)           53.0502         0.166523   
     69. A(B   5,B   8,B  10)           63.8937         0.354605   
     70. A(B   4,B   9,B   7)          127.4695         0.133019   
     71. A(B   0,B   9,B   6)           41.4411         0.098175   
     72. A(B   4,B   9,B   6)           59.3370         0.136171   
     73. A(B   0,B   9,B   4)           59.4292         0.153830   
     74. A(B   6,B   9,B   7)           78.7275         0.095229   
     75. A(B   0,B   9,B   7)           68.2988         0.097562   
     76. A(B   2,B  10,B   5)           79.5917         0.215904   
     77. A(B   5,B  10,B   8)           53.4106         0.316545   
     78. A(B   0,B  10,B   7)           78.4532         0.105883   
     79. A(B   2,B  10,B   7)          119.0336         0.120019   
     80. A(B   7,B  10,B  11)           74.8123         0.140058   
     81. A(B   7,B  10,B   8)          148.4636         0.144618   
     82. A(B   5,B  10,B   7)          124.3997         0.143774   
     83. A(B   0,B  10,B   2)           41.5213         0.128115   
     84. A(B   0,B  10,B  11)          151.7694         0.153384   
     85. A(B   0,B  10,B   8)          133.0750         0.159135   
     86. A(B   0,B  10,B   5)          110.0824         0.158071   
     87. A(B   8,B  10,B  11)           74.1377         0.301105   
     88. A(B   2,B  10,B  11)          158.1961         0.207293   
     89. A(B   2,B  10,B   8)           92.2512         0.217859   
     90. A(B   5,B  10,B  11)           78.6148         0.297887   
     91. A(B   7,B  11,B  10)           74.2813         0.139683   
     92. D(B   5,B   2,B   0,B   6)   -173.3880         0.010000   
     93. D(B  10,B   2,B   0,B   3)    -59.2301         0.010000   
     94. D(B  10,B   2,B   0,B   9)     53.4760         0.010000   
     95. D(B   5,B   2,B   0,B  10)     28.4916         0.010000   
     96. D(B  10,B   2,B   0,B   4)     80.1395         0.010000   
     97. D(B   5,B   2,B   0,B   4)    108.6311         0.010000   
     98. D(B  10,B   2,B   0,B   6)    158.1204         0.010000   
     99. D(B   5,B   2,B   0,B   3)    -30.7385         0.010000   
    100. D(B   7,B   3,B   0,B   2)     94.9679         0.010000   
    101. D(B   1,B   3,B   0,B  10)    -88.9010         0.010000   
    102. D(B   1,B   3,B   0,B   6)    125.4445         0.010000   
    103. D(B   7,B   3,B   0,B  10)     52.2886         0.010000   
    104. D(B   1,B   3,B   0,B   9)   -159.0437         0.010000   
    105. D(B   1,B   3,B   0,B   2)    -46.2216         0.010000   
    106. D(B   0,B   3,B   1,B   7)    138.7394         0.010116   
    107. D(B   1,B   3,B   0,B   4)   -170.5179         0.010000   
    108. D(B   6,B   4,B   0,B   2)    165.8600         0.010000   
    109. D(B   9,B   4,B   0,B   3)     26.0601         0.010000   
    110. D(B   6,B   4,B   0,B   3)    -70.0446         0.010000   
    111. D(B   6,B   4,B   0,B  10)   -144.8360         0.010000   
    112. D(B   9,B   4,B   0,B   6)     96.1047         0.010000   
    113. D(B   9,B   4,B   0,B   2)    -98.0352         0.010000   
    114. D(B   9,B   4,B   0,B  10)    -48.7312         0.010000   
    115. D(B  10,B   5,B   2,B   8)     61.1112         0.010000   
    116. D(B  10,B   5,B   2,B   0)    -49.0565         0.010000   
    117. D(B   8,B   5,B   2,B  10)    -61.1112         0.010000   
    118. D(B   8,B   5,B   2,B   0)   -110.1677         0.010000   
    119. D(B   4,B   6,B   0,B   3)    134.1644         0.010000   
    120. D(B   4,B   6,B   0,B  10)     70.1618         0.010000   
    121. D(B   4,B   6,B   0,B   9)     26.2652         0.010000   
    122. D(B   4,B   6,B   0,B   2)    -81.9080         0.010000   
    123. D(B   9,B   6,B   4,B   0)     89.5846         0.010000   
    124. D(B   9,B   6,B   0,B   3)    107.8991         0.010000   
    125. D(B   9,B   6,B   0,B  10)     43.8965         0.010000   
    126. D(B   9,B   6,B   0,B   2)   -108.1732         0.010000   
    127. D(B   0,B   6,B   4,B   9)    -89.5846         0.010000   
    128. D(B  11,B   7,B   3,B   0)    -73.3129         0.010000   
    129. D(B   9,B   7,B   3,B   1)    177.9633         0.010000   
    130. D(B   1,B   7,B   3,B   0)   -162.9420         0.010000   
    131. D(B  11,B   7,B   3,B   1)     89.6291         0.010000   
    132. D(B  10,B   7,B   3,B   0)    -49.8550         0.010000   
    133. D(B  10,B   7,B   3,B   1)    113.0870         0.010000   
    134. D(B   9,B   7,B   1,B   3)     -2.1837         0.010000   
    135. D(B  11,B   7,B   1,B   3)    -89.9079         0.010000   
    136. D(B  10,B   7,B   1,B   3)    -60.7386         0.010000   
    137. D(B  10,B   8,B   2,B   5)    -76.1347         0.010000   
    138. D(B  10,B   8,B   2,B   0)     11.1137         0.010000   
    139. D(B   5,B   8,B   2,B  10)     76.1347         0.010000   
    140. D(B   5,B   8,B   2,B   0)     87.2484         0.010000   
    141. D(B   2,B   8,B   5,B  10)    -59.7715         0.010000   
    142. D(B  10,B   8,B   5,B   2)     59.7715         0.010000   
    143. D(B   7,B   9,B   4,B   0)     -6.3467         0.013812   
    144. D(B   0,B   9,B   4,B   6)     48.5508         0.013812   
    145. D(B   6,B   9,B   0,B   4)     76.9452         0.010000   
    146. D(B   6,B   9,B   0,B   3)    -82.6047         0.010000   
    147. D(B   6,B   9,B   4,B   0)    -48.5508         0.013812   
    148. D(B   4,B   9,B   0,B   2)     89.3600         0.010000   
    149. D(B   4,B   9,B   0,B   6)    -76.9452         0.010000   
    150. D(B   4,B   9,B   0,B  10)    129.0646         0.010000   
    151. D(B   6,B   9,B   0,B   2)    166.3052         0.010000   
    152. D(B   4,B   9,B   0,B   3)   -159.5499         0.010000   
    153. D(B   7,B   9,B   4,B   6)     42.2041         0.013812   
    154. D(B   0,B   9,B   7,B  11)     76.3933         0.010000   
    155. D(B   0,B   9,B   7,B  10)     53.8716         0.010000   
    156. D(B   0,B   9,B   7,B   3)    -12.4793         0.010000   
    157. D(B   6,B   9,B   0,B  10)   -153.9902         0.010000   
    158. D(B   4,B   9,B   7,B   1)     -5.7765         0.010000   
    159. D(B   4,B   9,B   7,B  11)     82.2729         0.010000   
    160. D(B   4,B   9,B   7,B  10)     59.7512         0.010000   
    161. D(B   4,B   9,B   7,B   3)     -6.5996         0.010000   
    162. D(B   7,B   9,B   6,B   4)   -147.0669         0.010000   
    163. D(B   7,B   9,B   6,B   0)    -69.8842         0.010000   
    164. D(B   0,B   9,B   6,B   4)    -77.1827         0.010000   
    165. D(B   4,B   9,B   6,B   0)     77.1827         0.010000   
    166. D(B   7,B  10,B   8,B   5)     97.7898         0.010000   
    167. D(B   0,B  10,B   8,B   2)     -8.4984         0.010000   
    168. D(B   0,B  10,B   8,B   5)    -83.7626         0.010000   
    169. D(B   2,B  10,B   8,B   5)    -75.2643         0.010000   
    170. D(B  11,B  10,B   8,B   5)     87.4413         0.010000   
    171. D(B   5,B  10,B   8,B   2)     75.2643         0.010000   
    172. D(B  11,B  10,B   7,B   3)   -129.2081         0.010000   
    173. D(B   8,B  10,B   7,B   1)   -118.7477         0.010000   
    174. D(B   8,B  10,B   7,B  11)    -10.3143         0.010000   
    175. D(B   8,B  10,B   7,B   3)   -139.5224         0.010000   
    176. D(B   5,B  10,B   7,B   1)    -44.1407         0.010000   
    177. D(B   5,B  10,B   7,B  11)     64.2927         0.010000   
    178. D(B   5,B  10,B   7,B   3)    -64.9154         0.010000   
    179. D(B   7,B  10,B   5,B   8)   -141.0936         0.010000   
    180. D(B   0,B  10,B   5,B   2)     28.6375         0.010000   
    181. D(B   0,B  10,B   5,B   8)    129.3630         0.010000   
    182. D(B   2,B  10,B   5,B   8)    100.7255         0.010000   
    183. D(B  11,B  10,B   5,B   2)   -179.3198         0.010000   
    184. D(B  11,B  10,B   5,B   8)    -78.5943         0.010000   
    185. D(B   8,B  10,B   5,B   2)   -100.7255         0.010000   
    186. D(B   0,B  10,B   2,B   5)   -137.2322         0.010000   
    187. D(B  11,B  10,B   2,B   8)    -50.3441         0.010000   
    188. D(B  11,B  10,B   2,B   5)      1.7956         0.010000   
    189. D(B  11,B  10,B   2,B   0)    139.0278         0.010000   
    190. D(B   8,B  10,B   2,B   5)     52.1397         0.010000   
    191. D(B   8,B  10,B   2,B   0)   -170.6281         0.010000   
    192. D(B   5,B  10,B   2,B   8)    -52.1397         0.010000   
    193. D(B   5,B  10,B   7,B   9)   -163.9012         0.010000   
    194. D(B   5,B  10,B   2,B   0)    137.2322         0.010000   
    195. D(B   8,B  10,B   0,B   9)   -114.4574         0.010000   
    196. D(B   8,B  10,B   0,B   4)    -94.7596         0.010000   
    197. D(B   8,B  10,B   7,B   9)    121.4918         0.010000   
    198. D(B   8,B  10,B   0,B   3)    134.2059         0.010000   
    199. D(B   8,B  10,B   0,B   6)   -158.7754         0.010000   
    200. D(B   8,B  10,B   0,B   2)     12.8712         0.010000   
    201. D(B  11,B  10,B   8,B   2)    162.7056         0.010000   
    202. D(B   5,B  10,B   0,B   9)   -172.6522         0.010000   
    203. D(B   5,B  10,B   0,B   4)   -152.9544         0.010000   
    204. D(B   5,B  10,B   0,B   3)     76.0111         0.010000   
    205. D(B   5,B  10,B   0,B   6)    143.0297         0.010000   
    206. D(B   5,B  10,B   0,B   2)    -45.3237         0.010000   
    207. D(B   7,B  11,B  10,B   0)    -19.2460         0.010000   
    208. D(B   7,B  11,B  10,B   2)   -132.4807         0.010000   
    209. D(B   7,B  11,B  10,B   8)    174.4130         0.010000   
    210. D(B   7,B  11,B  10,B   5)   -130.6792         0.010000   
    211. D(B  10,B  11,B   7,B   9)    -43.1152         0.010000   
    212. D(B  10,B  11,B   7,B   1)     68.0955         0.010000   
    213. D(B  10,B  11,B   7,B   3)     45.9426         0.010000   
    -----------------------------------------------------------------

Number of atoms                         .... 12
Number of degrees of freedom            .... 213


         *************************************************************
         *                GEOMETRY OPTIMIZATION CYCLE   1            *
         *************************************************************
---------------------------------
CARTESIAN COORDINATES (ANGSTROEM)
---------------------------------
  B     1.767312   -0.163261    0.301257
  B     0.735045    2.300058   -2.860966
  B     1.025946   -1.964818   -0.494046
  B     0.945705    1.727362   -1.447951
  B     1.329236   -0.394233    3.274025
  B    -1.312535   -1.782688   -1.906665
  B     3.188545    1.726394    1.447679
  B    -1.584327    2.358501    0.245534
  B    -1.961797   -2.553684   -0.701317
  B     0.041997    0.411282    3.277349
  B    -1.221188   -1.026569   -0.323028
  B    -2.953938   -0.638346   -0.811871

----------------------------
CARTESIAN COORDINATES (A.U.)
----------------------------
  NO LB    ZA    FRAG    MASS        X           Y           Z
   0 B   5.0000    0    10.810    3.339736   -0.308518    0.569293
   1 B   5.0000    0    10.810    1.389033    4.346480   -5.406441
   2 B   5.0000    0    10.810    1.938757   -3.712969   -0.933612
   3 B   5.0000    0    10.810    1.787123    3.264242   -2.736230
   4 B   5.0000    0    10.810    2.511892   -0.744991    6.187011
   5 B   5.0000    0    10.810   -2.480332   -3.368792   -3.603075
   6 B   5.0000    0    10.810    6.025476    3.262413    2.735718
   7 B   5.0000    0    10.810   -2.993944    4.456921    0.463991
   8 B   5.0000    0    10.810   -3.707260   -4.825763   -1.325297
   9 B   5.0000    0    10.810    0.079362    0.777210    6.193291
  10 B   5.0000    0    10.810   -2.307710   -1.939934   -0.610435
  11 B   5.0000    0    10.810   -5.582135   -1.206299   -1.534214

      -----------------------------------------------------------      
     |                   =====================                   |     
     |                           x T B                           |     
     |                   =====================                   |     
     |                         S. Grimme                         |     
     |          Mulliken Center for Theoretical Chemistry        |     
     |                    University of Bonn                     |     
      -----------------------------------------------------------      

   * xtb version 6.6.1 (unknown) compiled by 'builduser@buildhost' on 2023-08-07

   xtb is free software: you can redistribute it and/or modify it under
   the terms of the GNU Lesser General Public License as published by
   the Free Software Foundation, either version 3 of the License, or
   (at your option) any later version.
   
   xtb is distributed in the hope that it will be useful,
   but WITHOUT ANY WARRANTY; without even the implied warranty of
   MERCHANTABILITY or FITNESS FOR A PARTICULAR PURPOSE.  See the
   GNU Lesser General Public License for more details.
   
   Cite this work as:
   * C. Bannwarth, E. Caldeweyher, S. Ehlert, A. Hansen, P. Pracht,
     J. Seibert, S. Spicher, S. Grimme, WIREs Comput. Mol. Sci., 2020, 11,
     e01493. DOI: 10.1002/wcms.1493
   
   for GFN2-xTB:
   * C. Bannwarth, S. Ehlert and S. Grimme., J. Chem. Theory Comput., 2019,
     15, 1652-1671. DOI: 10.1021/acs.jctc.8b01176
   for GFN1-xTB:
   * S. Grimme, C. Bannwarth, P. Shushkov, J. Chem. Theory Comput., 2017,
     13, 1989-2009. DOI: 10.1021/acs.jctc.7b00118
   for GFN0-xTB:
   * P. Pracht, E. Caldeweyher, S. Ehlert, S. Grimme, ChemRxiv, 2019, preprint.
     DOI: 10.26434/chemrxiv.8326202.v1
   for GFN-FF:
   * S. Spicher and S. Grimme, Angew. Chem. Int. Ed., 2020, 59, 15665-15673.
     DOI: 10.1002/anie.202004239
   
   for ALPB and GBSA implicit solvation:
   * S. Ehlert, M. Stahn, S. Spicher, S. Grimme, J. Chem. Theory Comput.,
     2021, 17, 4250-4261. DOI: 10.1021/acs.jctc.1c00471
   
   for DFT-D4:
   * E. Caldeweyher, C. Bannwarth and S. Grimme, J. Chem. Phys., 2017,
     147, 034112. DOI: 10.1063/1.4993215
   * E. Caldeweyher, S. Ehlert, A. Hansen, H. Neugebauer, S. Spicher,
     C. Bannwarth and S. Grimme, J. Chem. Phys., 2019, 150, 154122.
     DOI: 10.1063/1.5090222
   * E. Caldeweyher, J.-M. Mewes, S. Ehlert and S. Grimme, Phys. Chem. Chem. Phys.
     2020, 22, 8499-8512. DOI: 10.1039/D0CP00502A
   
   for sTDA-xTB:
   * S. Grimme and C. Bannwarth, J. Chem. Phys., 2016, 145, 054103.
     DOI: 10.1063/1.4959605
   
   in the mass-spec context:
   * V. Asgeirsson, C. Bauer and S. Grimme, Chem. Sci., 2017, 8, 4879.
     DOI: 10.1039/c7sc00601b
   * J. Koopman and S. Grimme, ACS Omega 2019, 4, 12, 15120-15133.
     DOI: 10.1021/acsomega.9b02011
   
   for metadynamics refer to:
   * S. Grimme, J. Chem. Theory Comput., 2019, 155, 2847-2862
     DOI: 10.1021/acs.jctc.9b00143
   
   for SPH calculations refer to:
   * S. Spicher and S. Grimme, J. Chem. Theory Comput., 2021, 17, 1701-1714
     DOI: 10.1021/acs.jctc.0c01306
   
   with help from (in alphabetical order)
   P. Atkinson, C. Bannwarth, F. Bohle, G. Brandenburg, E. Caldeweyher
   M. Checinski, S. Dohm, S. Ehlert, S. Ehrlich, I. Gerasimov, C. Hölzer
   A. Katbashev, J. Koopman, C. Lavigne, S. Lehtola, F. März, M. Müller,
   F. Musil, H. Neugebauer, J. Pisarek, C. Plett, P. Pracht, F. Pultar,
   J. Seibert, P. Shushkov, S. Spicher, M. Stahn, M. Steiner, T. Strunk,
   J. Stückrath, T. Rose, and J. Unsleber
   
 * started run on 2026/04/17 at 12:14:21.013     

           -------------------------------------------------
          |                Calculation Setup                |
           -------------------------------------------------

          program call               : /usr/bin/xtb random_d2.10_003_m1_XTB.xyz --grad -c 0 -u 0 -P 1 --namespace random_d2.10_003_m1 --input random_d2.10_003_m1_XTB.input.tmp --acc 0.200000
          calculation namespace      : random_d2.10_003_m1
          coordinate file            : random_d2.10_003_m1_XTB.xyz
          omp threads                :                     1

   ID    Z sym.   atoms
    1    5 B      1-12

molecular fragmentation (1/2 indicates fragments):
122222222222
# atoms in fragment 1/2:     1    11
 fragment masses (1/2) :       10.81      118.92
CMA distance (Bohr)    :   3.711
constraining FC (au)   :  0.0500

           -------------------------------------------------
          |                 G F N 2 - x T B                 |
           -------------------------------------------------

        Reference                      10.1021/acs.jctc.8b01176
      * Hamiltonian:
        H0-scaling (s, p, d)           1.850000    2.230000    2.230000
        zeta-weighting                 0.500000
      * Dispersion:
        s8                             2.700000
        a1                             0.520000
        a2                             5.000000
        s9                             5.000000
      * Repulsion:
        kExp                           1.500000    1.000000
        rExp                           1.000000
      * Coulomb:
        alpha                          2.000000
        third order                    shell-resolved
        anisotropic                    true
        a3                             3.000000
        a5                             4.000000
        cn-shift                       1.200000
        cn-exp                         4.000000
        max-rad                        5.000000


          ...................................................
          :                      SETUP                      :
          :.................................................:
          :  # basis functions                  48          :
          :  # atomic orbitals                  48          :
          :  # shells                           24          :
          :  # electrons                        36          :
          :  max. iterations                   250          :
          :  Hamiltonian                  GFN2-xTB          :
          :  restarted?                      false          :
          :  GBSA solvation                  false          :
          :  PC potential                    false          :
          :  electronic temp.          300.0000000     K    :
          :  accuracy                    0.2000000          :
          :  -> integral cutoff          0.3198970E+02      :
          :  -> integral neglect         0.2000000E-08      :
          :  -> SCF convergence          0.2000000E-06 Eh   :
          :  -> wf. convergence          0.2000000E-04 e    :
          :  Broyden damping             0.4000000          :
          ...................................................

 iter      E             dE          RMSdq      gap      omega  full diag
   1    -11.4381789 -0.114382E+02  0.197E+01    0.19       0.0  T
   2     27.6054552  0.390436E+02  0.297E+01    0.17       1.0  T
   3     23.8095979 -0.379586E+01  0.265E+01    0.04       1.0  T
   4     -3.7588140 -0.275684E+02  0.187E+01    0.12       1.0  T
   5     -6.4690627 -0.271025E+01  0.155E+01    0.19       1.0  T
   6      6.9468465  0.134159E+02  0.226E+01    0.35       1.0  T
   7     -2.3159974 -0.926284E+01  0.181E+01    0.16       1.0  T
   8     -4.8599359 -0.254394E+01  0.161E+01    0.04       1.0  T
   9     -9.9184501 -0.505851E+01  0.120E+01    0.02       1.0  T
  10    -10.0735197 -0.155070E+00  0.108E+01    0.15       1.0  T
  11     -8.2857160  0.178780E+01  0.128E+01    0.15       1.0  T
  12    -10.7894307 -0.250371E+01  0.990E+00    0.08       1.0  T
  13    -10.6719733  0.117457E+00  0.102E+01    0.08       1.0  T
  14    -11.5768506 -0.904877E+00  0.888E+00    0.02       1.0  T
  15    -11.5823482 -0.549763E-02  0.887E+00    0.02       1.0  T
  16    -11.6355833 -0.532350E-01  0.881E+00    0.04       1.0  T
  17    -11.6537604 -0.181771E-01  0.882E+00    0.07       1.0  T
  18    -11.2118873  0.441873E+00  0.941E+00    0.16       1.0  T
  19    -11.6057614 -0.393874E+00  0.860E+00    0.15       1.0  T
  20    -11.8620870 -0.256326E+00  0.738E+00    0.06       1.0  T
  21    -11.7549208  0.107166E+00  0.723E+00    0.01       1.0  T
  22    -12.5943399 -0.839419E+00  0.566E+00    0.06       1.0  T
  23    -12.5855795  0.876038E-02  0.571E+00    0.09       1.0  T
  24    -12.5937570 -0.817748E-02  0.568E+00    0.08       1.0  T
  25    -12.6239293 -0.301723E-01  0.572E+00    0.05       1.0  T
  26    -11.1022548  0.152167E+01  0.822E+00    0.11       1.0  T
  27    -11.6616407 -0.559386E+00  0.696E+00    0.06       1.0  T
  28    -11.8105740 -0.148933E+00  0.668E+00    0.05       1.0  T
  29    -11.9176822 -0.107108E+00  0.664E+00    0.05       1.0  T
  30    -12.2772012 -0.359519E+00  0.586E+00    0.04       1.0  T
  31    -12.1082272  0.168974E+00  0.620E+00    0.05       1.0  T
  32    -12.2747106 -0.166483E+00  0.556E+00    0.07       1.0  T
  33    -12.2303859  0.443247E-01  0.541E+00    0.06       1.0  T
  34    -12.6690701 -0.438684E+00  0.379E+00    0.03       1.0  T
  35    -12.6717691 -0.269897E-02  0.377E+00    0.03       1.0  T
  36    -12.6711650  0.604065E-03  0.377E+00    0.03       1.0  T
  37    -12.8099672 -0.138802E+00  0.302E+00    0.04       1.0  T
  38    -12.8110817 -0.111452E-02  0.301E+00    0.04       1.0  T
  39    -12.9651734 -0.154092E+00  0.194E+00    0.06       1.0  T
  40    -12.9482919  0.168815E-01  0.198E+00    0.06       1.0  T
  41    -12.9665571 -0.182652E-01  0.194E+00    0.07       1.0  T
  42    -12.9169915  0.495656E-01  0.226E+00    0.06       1.0  T
  43    -12.8952026  0.217889E-01  0.242E+00    0.06       1.0  T
  44    -12.8881932  0.700945E-02  0.247E+00    0.06       1.0  T
  45    -12.8978324 -0.963926E-02  0.241E+00    0.06       1.0  T
  46    -12.9075251 -0.969268E-02  0.233E+00    0.06       1.0  T
  47    -12.9151900 -0.766487E-02  0.227E+00    0.06       1.0  T
  48    -12.9758178 -0.606278E-01  0.178E+00    0.07       1.0  T
  49    -12.9897116 -0.138937E-01  0.168E+00    0.08       1.0  T
  50    -12.9892019  0.509625E-03  0.170E+00    0.08       1.0  T
  51    -12.9991273 -0.992532E-02  0.156E+00    0.09       1.0  T
  52    -13.0164010 -0.172737E-01  0.129E+00    0.12       1.0  T
  53    -13.0198643 -0.346337E-02  0.127E+00    0.12       1.0  T
  54    -13.0251257 -0.526135E-02  0.118E+00    0.12       1.0  T
  55    -13.0249349  0.190779E-03  0.119E+00    0.12       1.0  T
  56    -13.0219820  0.295293E-02  0.126E+00    0.14       1.0  T
  57    -13.0195665  0.241551E-02  0.130E+00    0.15       1.0  T
  58    -13.0192143  0.352200E-03  0.129E+00    0.15       1.0  T
  59    -13.0188744  0.339857E-03  0.119E+00    0.15       1.0  T
  60    -13.0183764  0.497993E-03  0.120E+00    0.16       1.0  T
  61    -13.0198261 -0.144972E-02  0.113E+00    0.16       1.0  T
  62    -13.0220992 -0.227309E-02  0.106E+00    0.16       1.0  T
  63    -13.0239453 -0.184607E-02  0.995E-01    0.16       1.0  T
  64    -13.0280729 -0.412755E-02  0.839E-01    0.16       1.0  T
  65    -13.0297436 -0.167072E-02  0.774E-01    0.15       1.0  T
  66    -13.0316473 -0.190373E-02  0.666E-01    0.15       1.0  T
  67    -13.0342849 -0.263763E-02  0.535E-01    0.14       1.0  T
  68    -13.0364159 -0.213093E-02  0.418E-01    0.13       1.0  T
  69    -13.0378867 -0.147084E-02  0.309E-01    0.13       1.0  T
  70    -13.0384278 -0.541097E-03  0.255E-01    0.13       1.0  T
  71    -13.0390601 -0.632325E-03  0.192E-01    0.12       1.0  T
  72    -13.0391948 -0.134689E-03  0.170E-01    0.12       1.0  T
  73    -13.0392080 -0.131730E-04  0.172E-01    0.12       1.0  T
  74    -13.0392547 -0.466783E-04  0.165E-01    0.12       1.0  T
  75    -13.0393038 -0.491584E-04  0.155E-01    0.12       1.0  T
  76    -13.0393307 -0.268226E-04  0.145E-01    0.12       1.0  T
  77    -13.0392984  0.322986E-04  0.136E-01    0.12       1.0  T
  78    -13.0393546 -0.562296E-04  0.122E-01    0.12       1.0  T
  79    -13.0394528 -0.982482E-04  0.863E-02    0.12       1.0  T
  80    -13.0394793 -0.265054E-04  0.654E-02    0.12       1.0  T
  81    -13.0394960 -0.166112E-04  0.487E-02    0.12       1.0  T
  82    -13.0395099 -0.139533E-04  0.383E-02    0.12       1.0  T
  83    -13.0395229 -0.129852E-04  0.276E-02    0.12       1.0  T
  84    -13.0395317 -0.879828E-05  0.187E-02    0.12       1.5  T
  85    -13.0395365 -0.484557E-05  0.100E-02    0.12       2.9  T
  86    -13.0395374 -0.886127E-06  0.676E-03    0.12       4.3  T
  87    -13.0395379 -0.517442E-06  0.333E-03    0.12       8.7  T
  88    -13.0395379  0.515051E-07  0.316E-03    0.12       9.1  T
  89    -13.0395379  0.257980E-07  0.308E-03    0.12       9.4  T
  90    -13.0395379 -0.588752E-08  0.292E-03    0.12       9.9  T
  91    -13.0395380 -0.125474E-06  0.209E-03    0.12      13.8  T
  92    -13.0395380 -0.404514E-07  0.178E-03    0.12      16.2  T
  93    -13.0395381 -0.404922E-07  0.124E-03    0.12      23.3  T
  94    -13.0395381 -0.137497E-07  0.967E-04    0.12      29.9  T
  95    -13.0395381 -0.129498E-07  0.745E-04    0.12      38.7  T
  96    -13.0395381 -0.493591E-08  0.635E-04    0.12      45.5  T
  97    -13.0395381 -0.553023E-08  0.481E-04    0.12      60.1  T
  98    -13.0395381 -0.275631E-08  0.372E-04    0.12      77.6  T
  99    -13.0395381 -0.125862E-08  0.322E-04    0.12      89.6  T
 100    -13.0395381 -0.104666E-08  0.239E-04    0.12     120.7  T
 101    -13.0395381 -0.114250E-08  0.132E-04    0.12     218.4  T
 102    -13.0395381 -0.173142E-09  0.781E-05    0.12     369.8  T

   *** convergence criteria satisfied after 102 iterations ***

         #    Occupation            Energy/Eh            Energy/eV
      -------------------------------------------------------------
         1        2.0000           -0.4453034             -12.1173
       ...           ...                  ...                  ...
        12        2.0000           -0.2695158              -7.3339
        13        2.0000           -0.2639534              -7.1825
        14        2.0000           -0.2605471              -7.0898
        15        2.0000           -0.2591626              -7.0522
        16        1.9916           -0.2541190              -6.9149
        17        1.9192           -0.2519296              -6.8554
        18        1.8634           -0.2514019              -6.8410 (HOMO)
        19        0.2118           -0.2468926              -6.7183 (LUMO)
        20        0.0140           -0.2442133              -6.6454
        21        0.0000           -0.2363695              -6.4319
        22        0.0000           -0.2351091              -6.3976
        23                         -0.2328083              -6.3350
       ...                                ...                  ...
        48                          0.8034632              21.8633
      -------------------------------------------------------------
                  HL-Gap            0.0045092 Eh            0.1227 eV
             Fermi-level           -0.2489195 Eh           -6.7734 eV

 SCC (total)                   0 d,  0 h,  0 min,  0.155 sec
 SCC setup                      ...        0 min,  0.000 sec (  0.089%)
 Dispersion                     ...        0 min,  0.000 sec (  0.069%)
 classical contributions        ...        0 min,  0.000 sec (  0.023%)
 integral evaluation            ...        0 min,  0.004 sec (  2.297%)
 iterations                     ...        0 min,  0.146 sec ( 94.534%)
 molecular gradient             ...        0 min,  0.004 sec (  2.840%)
 printout                       ...        0 min,  0.000 sec (  0.134%)

         :::::::::::::::::::::::::::::::::::::::::::::::::::::
         ::                     SUMMARY                     ::
         :::::::::::::::::::::::::::::::::::::::::::::::::::::
         :: total energy             -12.970981864316 Eh    ::
         :: gradient norm              0.246688151864 Eh/a0 ::
         :: HOMO-LUMO gap              0.122702217367 eV    ::
         ::.................................................::
         :: SCC energy               -13.039538115874 Eh    ::
         :: -> isotropic ES            0.067407607685 Eh    ::
         :: -> anisotropic ES          0.000854715506 Eh    ::
         :: -> anisotropic XC         -0.043001105523 Eh    ::
         :: -> dispersion             -0.018916760714 Eh    ::
         :: repulsion energy           0.068291825027 Eh    ::
         :: add. restraining           0.000000000000 Eh    ::
         :: total charge              -0.000000000000 e     ::
         :::::::::::::::::::::::::::::::::::::::::::::::::::::


Property printout bound to 'properties.out'

           -------------------------------------------------
          | TOTAL ENERGY              -12.970981864316 Eh   |
          | GRADIENT NORM               0.246688151864 Eh/α |
          | HOMO-LUMO GAP               0.122702217367 eV   |
           -------------------------------------------------

------------------------------------------------------------------------
 * finished run on 2026/04/17 at 12:14:21.180     
------------------------------------------------------------------------
 total:
 * wall-time:     0 d,  0 h,  0 min,  0.167 sec
 *  cpu-time:     0 d,  0 h,  0 min,  0.167 sec
 * ratio c/w:     0.999 speedup
 SCF:
 * wall-time:     0 d,  0 h,  0 min,  0.155 sec
 *  cpu-time:     0 d,  0 h,  0 min,  0.155 sec
 * ratio c/w:     1.000 speedup


-------------------------   --------------------
FINAL SINGLE POINT ENERGY       -12.970981864320
-------------------------   --------------------


-------------
DIPOLE MOMENT
-------------
                                X             Y             Z
Total Dipole Moment    :     -0.58000      -1.19100      -0.90500
                        -----------------------------------------
Magnitude (a.u.)       :      1.60434
Magnitude (Debye)      :      4.07791


------------------
CARTESIAN GRADIENT
------------------

   1   B   :    0.022540220    0.008256017    0.013426647
   2   B   :   -0.010222509    0.035652109   -0.087093602
   3   B   :    0.008609155   -0.084880756   -0.021232805
   4   B   :    0.019567414   -0.013096497    0.045585000
   5   B   :    0.062820066   -0.050507191    0.022234592
   6   B   :    0.003089423    0.032028115   -0.069314745
   7   B   :    0.034431904    0.043341952    0.017916260
   8   B   :   -0.021198757    0.017240502    0.015584529
   9   B   :   -0.005600114   -0.058951868    0.050257939
  10   B   :   -0.070461830    0.042562831    0.005955675
  11   B   :    0.036441142   -0.005115359    0.033553496
  12   B   :   -0.080016115    0.033470144   -0.026872985

Difference to translation invariance:
           :    0.0000000000    0.0000000000   -0.0000000000

Difference to rotation invariance:
           :   -0.0000000330   -0.0000000163   -0.0000000290

Norm of the Cartesian gradient     ...    0.2466881519
RMS gradient                       ...    0.0411146920
MAX gradient                       ...    0.0870936022
------------------------------------------------------------------------------
                         ORCA GEOMETRY RELAXATION STEP
------------------------------------------------------------------------------

Reading the OPT-File                    .... done
Getting information on internals        .... done
Copying old internal coords+grads       .... done
Making the new internal coordinates     .... (2022 redundants) done
Validating the new internal coordinates .... (2022 redundants) done
Calculating the B-matrix                .... done
Calculating the G,G- and P matrices     .... done
Transforming gradient to internals      .... done
Projecting the internal gradient        .... done
Number of atoms                         ....  12
Number of internal coordinates          .... 213
Current Energy                          ....   -12.970981864 Eh
Current gradient norm                   ....     0.246688152 Eh/bohr
Maximum allowed component of the step   ....  0.300
Current trust radius                    ....  0.300
Evaluating the initial hessian          ....  (Almloef) done
Projecting the Hessian                  .... done
Forming the augmented Hessian           .... done
Diagonalizing the augmented Hessian     .... done
Last element of RFO vector              ....  0.794323245
Lowest eigenvalues of augmented Hessian:
 -0.123339798  0.011014460  0.011552219  0.012465908  0.013114214
Length of the computed step             ....  0.764796118
Warning: the length of the step is outside the trust region - taking restricted step instead
The input lambda is                     ....     0.009630
   iter:   5  x=    0.001812  g=31107.915911 f(x)=    98.775439
   iter:  10  x=   -0.082445  g=   56.632712 f(x)=     2.022807
   iter:  15  x=   -0.435546  g=    0.404928 f(x)=     0.014245
The output lambda is                    ....    -0.439821 (19 iterations)
The final length of the internal step   ....  0.300000000
Converting the step to Cartesian space:
 Initial RMS(Int)=    0.0205556613
Transforming coordinates:
 Iter   0:  RMS(Cart)=    0.0484063238 RMS(Int)=    0.0205394858
done
Storing new coordinates                 .... done

                                .--------------------.
          ----------------------|Geometry convergence|-------------------------
          Item                value                   Tolerance       Converged
          ---------------------------------------------------------------------
          RMS gradient        0.0124588102            0.0000300000      NO
          MAX gradient        0.0810432483            0.0001000000      NO
          RMS step            0.0205556613            0.0006000000      NO
          MAX step            0.1360629547            0.0010000000      NO
          -------------------------------------------------------------------------
          ........................................................
          Max(Bonds)      0.0720      Max(Angles)    1.17
          Max(Dihed)        1.08      Max(Improp)    0.00
          ---------------------------------------------------------------------

The optimization has not yet converged - more geometry cycles are needed


    ---------------------------------------------------------------------------
                         Redundant Internal Coordinates
                            (Angstroem and degrees)

        Definition                    Value    dE/dq     Step     New-Value
    ----------------------------------------------------------------------------
     1. B(B   2,B   0)                2.1042  0.062448 -0.0648    2.0394   
     2. B(B   3,B   0)                2.7036  0.028897 -0.0360    2.6676   
     3. B(B   3,B   1)                1.5391  0.072477 -0.0450    1.4941   
     4. B(B   4,B   0)                3.0137  0.008832 -0.0112    3.0025   
     5. B(B   5,B   2)                2.7381  0.010732 -0.0126    2.7255   
     6. B(B   6,B   0)                2.6277  0.042445 -0.0489    2.5788   
     7. B(B   6,B   4)                3.3600  0.007970 -0.0126    3.3474   
     8. B(B   7,B   3)                3.1092  0.003592 -0.0094    3.0998   
     9. B(B   7,B   1)                3.8773  0.026804 -0.0237    3.8536   
    10. B(B   8,B   5)                1.5713  0.036859 -0.0268    1.5445   
    11. B(B   8,B   2)                3.0523  0.004444 -0.0036    3.0486   
    12. B(B   9,B   7)                3.9533  0.006522 -0.0085    3.9448   
    13. B(B   9,B   6)                3.8701  0.014345 -0.0140    3.8561   
    14. B(B   9,B   0)                3.4877  0.011477 -0.0096    3.4781   
    15. B(B   9,B   4)                1.5185  0.063523 -0.0392    1.4793   
    16. B(B  10,B   8)                1.7389  0.024389 -0.0182    1.7207   
    17. B(B  10,B   0)                3.1727  0.022148 -0.0265    3.1462   
    18. B(B  10,B   5)                1.7573  0.027735 -0.0209    1.7363   
    19. B(B  10,B   7)                3.4516  0.019799 -0.0212    3.4304   
    20. B(B  10,B   2)                2.4411  0.022544 -0.0241    2.4170   
    21. B(B  11,B  10)                1.8418  0.081043 -0.0720    1.7698   
    22. B(B  11,B   7)                3.4605  0.003257 -0.0051    3.4554   
    23. A(B   2,B   0,B   3)          104.31 -0.002125    0.23    104.53   
    24. A(B   2,B   0,B   6)          166.20  0.001581   -0.16    166.04   
    25. A(B   6,B   0,B  10)          142.28 -0.002587    0.23    142.51   
    26. A(B   4,B   0,B   6)           72.75 -0.004656    0.51     73.26   
    27. A(B   4,B   0,B   9)           25.71  0.010297   -0.67     25.04   
    28. A(B   2,B   0,B  10)           50.27  0.001009   -0.06     50.21   
    29. A(B   3,B   0,B   9)          106.65 -0.007588    0.57    107.23   
    30. A(B   3,B   0,B   6)           86.78  0.001405   -0.15     86.63   
    31. A(B   4,B   0,B  10)           92.08  0.005983   -0.52     91.56   
    32. A(B   3,B   0,B   4)          130.36  0.002029   -0.04    130.32   
    33. A(B   2,B   0,B   4)          104.83  0.003222   -0.41    104.43   
    34. A(B   3,B   0,B  10)           77.10 -0.003675    0.33     77.42   
    35. A(B   9,B   0,B  10)           75.33 -0.001035   -0.04     75.29   
    36. A(B   2,B   0,B   9)          106.81  0.003800   -0.41    106.41   
    37. A(B   6,B   0,B   9)           77.10 -0.003333    0.41     77.51   
    38. A(B   3,B   1,B   7)           49.60  0.000528   -0.06     49.54   
    39. A(B   0,B   2,B   8)          122.39 -0.006881    0.81    123.20   
    40. A(B   5,B   2,B  10)           39.14  0.004078   -0.25     38.89   
    41. A(B   0,B   2,B   5)          116.04 -0.008397    0.96    116.99   
    42. A(B   0,B   2,B  10)           88.21 -0.011330    1.17     89.38   
    43. A(B   8,B   2,B  10)           34.70  0.004904   -0.40     34.30   
    44. A(B   5,B   2,B   8)           30.88  0.006602   -0.51     30.38   
    45. A(B   0,B   3,B   7)           92.11  0.003333   -0.01     92.10   
    46. A(B   0,B   3,B   1)          153.61  0.008495   -0.81    152.80   
    47. A(B   1,B   3,B   7)          108.25 -0.010605    0.70    108.94   
    48. A(B   0,B   4,B   9)           94.86 -0.011652    0.90     95.76   
    49. A(B   0,B   4,B   6)           48.32  0.006566   -0.78     47.54   
    50. A(B   6,B   4,B   9)           97.79 -0.010288    0.77     98.56   
    51. A(B   2,B   5,B  10)           61.27  0.002820   -0.35     60.92   
    52. A(B   8,B   5,B  10)           62.70 -0.003136    0.25     62.94   
    53. A(B   2,B   5,B   8)           85.67 -0.007998    0.78     86.45   
    54. A(B   4,B   6,B   9)           22.88  0.009106   -0.58     22.29   
    55. A(B   0,B   6,B   9)           61.46 -0.001808    0.26     61.72   
    56. A(B   0,B   6,B   4)           58.93 -0.001910    0.27     59.20   
    57. A(B   1,B   7,B   3)           22.15  0.010077   -0.63     21.52   
    58. A(B  10,B   7,B  11)           30.91  0.011910   -1.12     29.79   
    59. A(B   3,B   7,B  11)           88.84  0.008353   -0.84     88.00   
    60. A(B   3,B   7,B  10)           68.01  0.000249   -0.15     67.86   
    61. A(B   1,B   7,B  10)           77.90  0.006945   -0.60     77.30   
    62. A(B   9,B   7,B  10)           66.42  0.000287   -0.15     66.27   
    63. A(B   1,B   7,B   9)          111.16  0.009726   -0.74    110.42   
    64. A(B   9,B   7,B  11)           88.32  0.009381   -1.04     87.27   
    65. A(B   3,B   7,B   9)           89.02 -0.000429   -0.10     88.92   
    66. A(B   1,B   7,B  11)           88.79  0.006516   -0.61     88.18   
    67. A(B   2,B   8,B   5)           63.45  0.001397   -0.27     63.17   
    68. A(B   2,B   8,B  10)           53.05  0.006045   -0.72     52.33   
    69. A(B   5,B   8,B  10)           63.89 -0.001406    0.09     63.98   
    70. A(B   4,B   9,B   7)          127.47  0.005739   -0.63    126.84   
    71. A(B   0,B   9,B   6)           41.44  0.005141   -0.67     40.77   
    72. A(B   4,B   9,B   6)           59.34  0.001181   -0.19     59.15   
    73. A(B   0,B   9,B   4)           59.43  0.001355   -0.22     59.21   
    74. A(B   6,B   9,B   7)           78.73  0.006268   -0.66     78.07   
    75. A(B   0,B   9,B   7)           68.30  0.004348   -0.41     67.89   
    76. A(B   2,B  10,B   5)           79.59 -0.006898    0.60     80.19   
    77. A(B   5,B  10,B   8)           53.41  0.004543   -0.34     53.07   
    78. A(B   0,B  10,B   7)           78.45  0.001733   -0.04     78.41   
    79. A(B   2,B  10,B   7)          119.03  0.011268   -1.09    117.94   
    80. A(B   7,B  10,B  11)           74.81 -0.010652    1.05     75.87   
    81. A(B   7,B  10,B   8)          148.46 -0.000430   -0.03    148.43   
    82. A(B   5,B  10,B   7)          124.40 -0.004615    0.33    124.73   
    83. A(B   0,B  10,B   2)           41.52  0.010321   -1.11     40.41   
    84. A(B   0,B  10,B  11)          151.77 -0.008241    0.94    152.71   
    85. A(B   0,B  10,B   8)          133.08 -0.001346    0.08    133.15   
    86. A(B   0,B  10,B   5)          110.08  0.000103   -0.16    109.92   
    87. A(B   8,B  10,B  11)           74.14  0.010411   -1.11     73.03   
    88. A(B   2,B  10,B  11)          158.20 -0.002646    0.19    158.38   
    89. A(B   2,B  10,B   8)           92.25 -0.010949    1.12     93.37   
    90. A(B   5,B  10,B  11)           78.61  0.004265   -0.41     78.20   
    91. A(B   7,B  11,B  10)           74.28 -0.001258    0.07     74.35   
    92. D(B   5,B   2,B   0,B   6)   -173.39  0.000147    0.19   -173.20   
    93. D(B  10,B   2,B   0,B   3)    -59.23  0.002417   -0.19    -59.42   
    94. D(B  10,B   2,B   0,B   9)     53.48 -0.005471    0.38     53.86   
    95. D(B   5,B   2,B   0,B  10)     28.49  0.001862   -0.03     28.46   
    96. D(B  10,B   2,B   0,B   4)     80.14  0.005713   -0.38     79.76   
    97. D(B   5,B   2,B   0,B   4)    108.63  0.007575   -0.40    108.23   
    98. D(B  10,B   2,B   0,B   6)    158.12 -0.001715    0.22    158.34   
    99. D(B   5,B   2,B   0,B   3)    -30.74  0.004278   -0.22    -30.96   
   100. D(B   7,B   3,B   0,B   2)     94.97  0.000097   -0.07     94.90   
   101. D(B   1,B   3,B   0,B  10)    -88.90  0.003398   -0.31    -89.22   
   102. D(B   1,B   3,B   0,B   6)    125.44  0.005369   -0.50    124.94   
   103. D(B   7,B   3,B   0,B  10)     52.29 -0.000126   -0.06     52.23   
   104. D(B   1,B   3,B   0,B   9)   -159.04  0.003343   -0.20   -159.24   
   105. D(B   1,B   3,B   0,B   2)    -46.22  0.003621   -0.32    -46.55   
   106. D(B   0,B   3,B   1,B   7)    138.74 -0.000669    0.08    138.82   
   107. D(B   1,B   3,B   0,B   4)   -170.52 -0.000733    0.09   -170.43   
   108. D(B   6,B   4,B   0,B   2)    165.86  0.001656   -0.16    165.70   
   109. D(B   9,B   4,B   0,B   3)     26.06  0.000471   -0.09     25.97   
   110. D(B   6,B   4,B   0,B   3)    -70.04  0.003982   -0.33    -70.38   
   111. D(B   6,B   4,B   0,B  10)   -144.84  0.004039   -0.32   -145.15   
   112. D(B   9,B   4,B   0,B   6)     96.10 -0.003511    0.25     96.35   
   113. D(B   9,B   4,B   0,B   2)    -98.04 -0.001855    0.09    -97.95   
   114. D(B   9,B   4,B   0,B  10)    -48.73  0.000528   -0.07    -48.80   
   115. D(B  10,B   5,B   2,B   8)     61.11  0.001642   -0.25     60.87   
   116. D(B  10,B   5,B   2,B   0)    -49.06  0.002230   -0.34    -49.40   
   117. D(B   8,B   5,B   2,B  10)    -61.11 -0.001642    0.25    -60.87   
   118. D(B   8,B   5,B   2,B   0)   -110.17  0.000588   -0.09   -110.26   
   119. D(B   4,B   6,B   0,B   3)    134.16  0.003346   -0.17    133.99   
   120. D(B   4,B   6,B   0,B  10)     70.16  0.006017   -0.37     69.79   
   121. D(B   4,B   6,B   0,B   9)     26.27  0.011116   -0.75     25.52   
   122. D(B   4,B   6,B   0,B   2)    -81.91  0.006953   -0.53    -82.44   
   123. D(B   9,B   6,B   4,B   0)     89.58 -0.005580    0.41     89.99   
   124. D(B   9,B   6,B   0,B   3)    107.90 -0.007769    0.58    108.48   
   125. D(B   9,B   6,B   0,B  10)     43.90 -0.005098    0.38     44.27   
   126. D(B   9,B   6,B   0,B   2)   -108.17 -0.004163    0.22   -107.95   
   127. D(B   0,B   6,B   4,B   9)    -89.58  0.005580   -0.41    -89.99   
   128. D(B  11,B   7,B   3,B   0)    -73.31 -0.008260    0.92    -72.39   
   129. D(B   9,B   7,B   3,B   1)    177.96  0.005977   -0.58    177.39   
   130. D(B   1,B   7,B   3,B   0)   -162.94 -0.004981    0.47   -162.47   
   131. D(B  11,B   7,B   3,B   1)     89.63 -0.003278    0.45     90.08   
   132. D(B  10,B   7,B   3,B   0)    -49.85  0.000452    0.04    -49.82   
   133. D(B  10,B   7,B   3,B   1)    113.09  0.005433   -0.43    112.65   
   134. D(B   9,B   7,B   1,B   3)     -2.18  0.006265   -0.61     -2.79   
   135. D(B  11,B   7,B   1,B   3)    -89.91 -0.005974    0.72    -89.19   
   136. D(B  10,B   7,B   1,B   3)    -60.74  0.006613   -0.45    -61.19   
   137. D(B  10,B   8,B   2,B   5)    -76.13  0.004719   -0.53    -76.67   
   138. D(B  10,B   8,B   2,B   0)     11.11  0.003741   -0.29     10.83   
   139. D(B   5,B   8,B   2,B  10)     76.13 -0.004719    0.53     76.67   
   140. D(B   5,B   8,B   2,B   0)     87.25 -0.000977    0.24     87.49   
   141. D(B   2,B   8,B   5,B  10)    -59.77 -0.006987    0.78    -58.99   
   142. D(B  10,B   8,B   5,B   2)     59.77  0.006987   -0.78     58.99   
   143. D(B   7,B   9,B   4,B   0)     -6.35  0.000155    0.03     -6.32   
   144. D(B   0,B   9,B   4,B   6)     48.55  0.005452   -0.69     47.86   
   145. D(B   6,B   9,B   0,B   4)     76.95 -0.001326    0.17     77.11   
   146. D(B   6,B   9,B   0,B   3)    -82.60 -0.002457    0.18    -82.43   
   147. D(B   6,B   9,B   4,B   0)    -48.55 -0.005452    0.69    -47.86   
   148. D(B   4,B   9,B   0,B   2)     89.36  0.002948   -0.32     89.04   
   149. D(B   4,B   9,B   0,B   6)    -76.95  0.001326   -0.17    -77.11   
   150. D(B   4,B   9,B   0,B  10)    129.06  0.000505   -0.11    128.95   
   151. D(B   6,B   9,B   0,B   2)    166.31  0.001622   -0.15    166.15   
   152. D(B   4,B   9,B   0,B   3)   -159.55 -0.001130    0.01   -159.54   
   153. D(B   7,B   9,B   4,B   6)     42.20  0.005607   -0.66     41.54   
   154. D(B   0,B   9,B   7,B  11)     76.39  0.006938   -0.64     75.76   
   155. D(B   0,B   9,B   7,B  10)     53.87 -0.000751    0.04     53.91   
   156. D(B   0,B   9,B   7,B   3)    -12.48 -0.001277    0.19    -12.29   
   157. D(B   6,B   9,B   0,B  10)   -153.99 -0.000821    0.05   -153.94   
   158. D(B   4,B   9,B   7,B   1)     -5.78 -0.003522    0.37     -5.41   
   159. D(B   4,B   9,B   7,B  11)     82.27  0.006699   -0.66     81.61   
   160. D(B   4,B   9,B   7,B  10)     59.75 -0.000991    0.01     59.76   
   161. D(B   4,B   9,B   7,B   3)     -6.60 -0.001517    0.16     -6.44   
   162. D(B   7,B   9,B   6,B   4)   -147.07  0.000347   -0.08   -147.14   
   163. D(B   7,B   9,B   6,B   0)    -69.88 -0.000566    0.01    -69.87   
   164. D(B   0,B   9,B   6,B   4)    -77.18  0.000913   -0.09    -77.27   
   165. D(B   4,B   9,B   6,B   0)     77.18 -0.000913    0.09     77.27   
   166. D(B   7,B  10,B   8,B   5)     97.79 -0.001915    0.15     97.94   
   167. D(B   0,B  10,B   8,B   2)     -8.50 -0.005105    0.48     -8.02   
   168. D(B   0,B  10,B   8,B   5)    -83.76 -0.005950    0.66    -83.10   
   169. D(B   2,B  10,B   8,B   5)    -75.26 -0.000845    0.19    -75.08   
   170. D(B  11,B  10,B   8,B   5)     87.44 -0.003327    0.37     87.81   
   171. D(B   5,B  10,B   8,B   2)     75.26  0.000845   -0.19     75.08   
   172. D(B  11,B  10,B   7,B   3)   -129.21  0.000427   -0.21   -129.42   
   173. D(B   8,B  10,B   7,B   1)   -118.75  0.005904   -0.36   -119.11   
   174. D(B   8,B  10,B   7,B  11)    -10.31 -0.002472    0.33     -9.99   
   175. D(B   8,B  10,B   7,B   3)   -139.52 -0.002044    0.11   -139.41   
   176. D(B   5,B  10,B   7,B   1)    -44.14  0.007627   -0.52    -44.66   
   177. D(B   5,B  10,B   7,B  11)     64.29 -0.000748    0.16     64.46   
   178. D(B   5,B  10,B   7,B   3)    -64.92 -0.000321   -0.05    -64.97   
   179. D(B   7,B  10,B   5,B   8)   -141.09 -0.001773    0.20   -140.89   
   180. D(B   0,B  10,B   5,B   2)     28.64  0.007763   -0.83     27.81   
   181. D(B   0,B  10,B   5,B   8)    129.36 -0.002373    0.25    129.61   
   182. D(B   2,B  10,B   5,B   8)    100.73 -0.010135    1.08    101.80   
   183. D(B  11,B  10,B   5,B   2)   -179.32  0.000466   -0.01   -179.33   
   184. D(B  11,B  10,B   5,B   8)    -78.59 -0.009669    1.07    -77.53   
   185. D(B   8,B  10,B   5,B   2)   -100.73  0.010135   -1.08   -101.80   
   186. D(B   0,B  10,B   2,B   5)   -137.23  0.002332   -0.19   -137.43   
   187. D(B  11,B  10,B   2,B   8)    -50.34 -0.005204    0.51    -49.83   
   188. D(B  11,B  10,B   2,B   5)      1.80  0.001051   -0.02      1.78   
   189. D(B  11,B  10,B   2,B   0)    139.03 -0.001281    0.18    139.21   
   190. D(B   8,B  10,B   2,B   5)     52.14  0.006254   -0.53     51.61   
   191. D(B   8,B  10,B   2,B   0)   -170.63  0.003922   -0.33   -170.96   
   192. D(B   5,B  10,B   2,B   8)    -52.14 -0.006254    0.53    -51.61   
   193. D(B   5,B  10,B   7,B   9)   -163.90  0.000454   -0.08   -163.98   
   194. D(B   5,B  10,B   2,B   0)    137.23 -0.002332    0.19    137.43   
   195. D(B   8,B  10,B   0,B   9)   -114.46 -0.001223    0.09   -114.36   
   196. D(B   8,B  10,B   0,B   4)    -94.76  0.006364   -0.38    -95.14   
   197. D(B   8,B  10,B   7,B   9)    121.49 -0.001270    0.08    121.57   
   198. D(B   8,B  10,B   0,B   3)    134.21  0.005332   -0.43    133.78   
   199. D(B   8,B  10,B   0,B   6)   -158.78  0.004432   -0.39   -159.17   
   200. D(B   8,B  10,B   0,B   2)     12.87  0.005241   -0.45     12.42   
   201. D(B  11,B  10,B   8,B   2)    162.71 -0.002481    0.18    162.88   
   202. D(B   5,B  10,B   0,B   9)   -172.65 -0.007770    0.71   -171.94   
   203. D(B   5,B  10,B   0,B   4)   -152.95 -0.000183    0.23   -152.72   
   204. D(B   5,B  10,B   0,B   3)     76.01 -0.001215    0.19     76.20   
   205. D(B   5,B  10,B   0,B   6)    143.03 -0.002116    0.22    143.25   
   206. D(B   5,B  10,B   0,B   2)    -45.32 -0.001307    0.16    -45.16   
   207. D(B   7,B  11,B  10,B   0)    -19.25  0.006436   -0.73    -19.98   
   208. D(B   7,B  11,B  10,B   2)   -132.48  0.001271   -0.06   -132.54   
   209. D(B   7,B  11,B  10,B   8)    174.41 -0.001108    0.14    174.55   
   210. D(B   7,B  11,B  10,B   5)   -130.68  0.002258   -0.07   -130.75   
   211. D(B  10,B  11,B   7,B   9)    -43.12  0.001147   -0.17    -43.29   
   212. D(B  10,B  11,B   7,B   1)     68.10  0.010305   -0.85     67.24   
   213. D(B  10,B  11,B   7,B   3)     45.94  0.000290   -0.23     45.72   
    ----------------------------------------------------------------------------

Geometry step timings:
Preparation and reading OPT file:      0.000 s ( 0.203 %)
Internal coordinates            :      0.000 s ( 0.412 %)
B/P matrices and projection     :      0.003 s (16.459 %)
Hessian update/contruction      :      0.003 s (17.171 %)
Making the step                 :      0.008 s (51.415 %)
Converting the step to Cartesian:      0.000 s ( 2.385 %)
Storing new data                :      0.000 s ( 0.640 %)
Checking convergence            :      0.000 s ( 0.627 %)
Final printing                  :      0.002 s (10.663 %)
Total time                      :      0.015 s

Time for energy+gradient        :      0.183 s
Time for complete geometry iter :      0.201 s

         *************************************************************
         *                GEOMETRY OPTIMIZATION CYCLE   2            *
         *************************************************************
---------------------------------
CARTESIAN COORDINATES (ANGSTROEM)
---------------------------------
  B     1.746068   -0.154347    0.283914
  B     0.750752    2.257867   -2.819229
  B     1.022561   -1.900809   -0.481469
  B     0.941949    1.715867   -1.439998
  B     1.296188   -0.391373    3.243179
  B    -1.310202   -1.764655   -1.884470
  B     3.153680    1.695999    1.399814
  B    -1.577843    2.351707    0.249694
  B    -1.954077   -2.521016   -0.701700
  B     0.041467    0.391848    3.265944
  B    -1.219579   -1.011822   -0.322541
  B    -2.890965   -0.669267   -0.793139

----------------------------
CARTESIAN COORDINATES (A.U.)
----------------------------
  NO LB    ZA    FRAG    MASS        X           Y           Z
   0 B   5.0000    0    10.810    3.299591   -0.291673    0.536520
   1 B   5.0000    0    10.810    1.418715    4.266751   -5.327571
   2 B   5.0000    0    10.810    1.932361   -3.592008   -0.909845
   3 B   5.0000    0    10.810    1.780026    3.242520   -2.721201
   4 B   5.0000    0    10.810    2.449440   -0.739588    6.128720
   5 B   5.0000    0    10.810   -2.475923   -3.334715   -3.561133
   6 B   5.0000    0    10.810    5.959592    3.204974    2.645266
   7 B   5.0000    0    10.810   -2.981691    4.444083    0.471854
   8 B   5.0000    0    10.810   -3.692670   -4.764029   -1.326022
   9 B   5.0000    0    10.810    0.078362    0.740485    6.171739
  10 B   5.0000    0    10.810   -2.304670   -1.912067   -0.609513
  11 B   5.0000    0    10.810   -5.463132   -1.264731   -1.498815

      -----------------------------------------------------------      
     |                   =====================                   |     
     |                           x T B                           |     
     |                   =====================                   |     
     |                         S. Grimme                         |     
     |          Mulliken Center for Theoretical Chemistry        |     
     |                    University of Bonn                     |     
      -----------------------------------------------------------      

   * xtb version 6.6.1 (unknown) compiled by 'builduser@buildhost' on 2023-08-07

   xtb is free software: you can redistribute it and/or modify it under
   the terms of the GNU Lesser General Public License as published by
   the Free Software Foundation, either version 3 of the License, or
   (at your option) any later version.
   
   xtb is distributed in the hope that it will be useful,
   but WITHOUT ANY WARRANTY; without even the implied warranty of
   MERCHANTABILITY or FITNESS FOR A PARTICULAR PURPOSE.  See the
   GNU Lesser General Public License for more details.
   
   Cite this work as:
   * C. Bannwarth, E. Caldeweyher, S. Ehlert, A. Hansen, P. Pracht,
     J. Seibert, S. Spicher, S. Grimme, WIREs Comput. Mol. Sci., 2020, 11,
     e01493. DOI: 10.1002/wcms.1493
   
   for GFN2-xTB:
   * C. Bannwarth, S. Ehlert and S. Grimme., J. Chem. Theory Comput., 2019,
     15, 1652-1671. DOI: 10.1021/acs.jctc.8b01176
   for GFN1-xTB:
   * S. Grimme, C. Bannwarth, P. Shushkov, J. Chem. Theory Comput., 2017,
     13, 1989-2009. DOI: 10.1021/acs.jctc.7b00118
   for GFN0-xTB:
   * P. Pracht, E. Caldeweyher, S. Ehlert, S. Grimme, ChemRxiv, 2019, preprint.
     DOI: 10.26434/chemrxiv.8326202.v1
   for GFN-FF:
   * S. Spicher and S. Grimme, Angew. Chem. Int. Ed., 2020, 59, 15665-15673.
     DOI: 10.1002/anie.202004239
   
   for ALPB and GBSA implicit solvation:
   * S. Ehlert, M. Stahn, S. Spicher, S. Grimme, J. Chem. Theory Comput.,
     2021, 17, 4250-4261. DOI: 10.1021/acs.jctc.1c00471
   
   for DFT-D4:
   * E. Caldeweyher, C. Bannwarth and S. Grimme, J. Chem. Phys., 2017,
     147, 034112. DOI: 10.1063/1.4993215
   * E. Caldeweyher, S. Ehlert, A. Hansen, H. Neugebauer, S. Spicher,
     C. Bannwarth and S. Grimme, J. Chem. Phys., 2019, 150, 154122.
     DOI: 10.1063/1.5090222
   * E. Caldeweyher, J.-M. Mewes, S. Ehlert and S. Grimme, Phys. Chem. Chem. Phys.
     2020, 22, 8499-8512. DOI: 10.1039/D0CP00502A
   
   for sTDA-xTB:
   * S. Grimme and C. Bannwarth, J. Chem. Phys., 2016, 145, 054103.
     DOI: 10.1063/1.4959605
   
   in the mass-spec context:
   * V. Asgeirsson, C. Bauer and S. Grimme, Chem. Sci., 2017, 8, 4879.
     DOI: 10.1039/c7sc00601b
   * J. Koopman and S. Grimme, ACS Omega 2019, 4, 12, 15120-15133.
     DOI: 10.1021/acsomega.9b02011
   
   for metadynamics refer to:
   * S. Grimme, J. Chem. Theory Comput., 2019, 155, 2847-2862
     DOI: 10.1021/acs.jctc.9b00143
   
   for SPH calculations refer to:
   * S. Spicher and S. Grimme, J. Chem. Theory Comput., 2021, 17, 1701-1714
     DOI: 10.1021/acs.jctc.0c01306
   
   with help from (in alphabetical order)
   P. Atkinson, C. Bannwarth, F. Bohle, G. Brandenburg, E. Caldeweyher
   M. Checinski, S. Dohm, S. Ehlert, S. Ehrlich, I. Gerasimov, C. Hölzer
   A. Katbashev, J. Koopman, C. Lavigne, S. Lehtola, F. März, M. Müller,
   F. Musil, H. Neugebauer, J. Pisarek, C. Plett, P. Pracht, F. Pultar,
   J. Seibert, P. Shushkov, S. Spicher, M. Stahn, M. Steiner, T. Strunk,
   J. Stückrath, T. Rose, and J. Unsleber
   
 * started run on 2026/04/17 at 12:14:21.209     

           -------------------------------------------------
          |                Calculation Setup                |
           -------------------------------------------------

          program call               : /usr/bin/xtb random_d2.10_003_m1_XTB.xyz --grad -c 0 -u 0 -P 1 --namespace random_d2.10_003_m1 --input random_d2.10_003_m1_XTB.input.tmp --acc 0.200000
          calculation namespace      : random_d2.10_003_m1
          coordinate file            : random_d2.10_003_m1_XTB.xyz
          omp threads                :                     1

   ID    Z sym.   atoms
    1    5 B      1-12

molecular fragmentation (1/2 indicates fragments):
121222222222
# atoms in fragment 1/2:     2    10
 fragment masses (1/2) :       21.62      108.11
CMA distance (Bohr)    :   3.916
constraining FC (au)   :  0.0500

           -------------------------------------------------
          |                 G F N 2 - x T B                 |
           -------------------------------------------------

        Reference                      10.1021/acs.jctc.8b01176
      * Hamiltonian:
        H0-scaling (s, p, d)           1.850000    2.230000    2.230000
        zeta-weighting                 0.500000
      * Dispersion:
        s8                             2.700000
        a1                             0.520000
        a2                             5.000000
        s9                             5.000000
      * Repulsion:
        kExp                           1.500000    1.000000
        rExp                           1.000000
      * Coulomb:
        alpha                          2.000000
        third order                    shell-resolved
        anisotropic                    true
        a3                             3.000000
        a5                             4.000000
        cn-shift                       1.200000
        cn-exp                         4.000000
        max-rad                        5.000000

q/qsh data taken from xtbrestart
CAMM data taken from xtbrestart

          ...................................................
          :                      SETUP                      :
          :.................................................:
[...]
    27. A(B   4,B   0,B   9)           10.97  0.000024   -1.39      9.58   
    28. A(B   2,B   0,B  10)           46.07 -0.000143    0.57     46.63   
    29. A(B   3,B   0,B   9)           89.09 -0.000115    0.66     89.75   
    30. A(B   3,B   0,B   6)           16.39 -0.000110    0.80     17.18   
    31. A(B   4,B   0,B  10)           44.26  0.000013   -1.34     42.93   
    32. A(B   3,B   0,B   4)           90.62 -0.000098    0.96     91.57   
    33. A(B   2,B   0,B   4)           67.55  0.000101   -1.13     66.42   
    34. A(B   3,B   0,B  10)           66.05 -0.000209   -0.41     65.64   
    35. A(B   9,B   0,B  10)           34.92  0.000006   -0.14     34.78   
    36. A(B   2,B   0,B   9)           57.37  0.000047    0.64     58.01   
    37. A(B   6,B   0,B   9)           94.44 -0.000634    0.93     95.37   
    38. A(B   3,B   1,B   7)           21.17 -0.000300    0.41     21.58   
    39. A(B   0,B   2,B   8)          142.77 -0.000083    0.24    143.01   
    40. A(B   5,B   2,B  10)           61.02 -0.000462    0.75     61.77   
    41. A(B   0,B   2,B   5)          156.97 -0.000210    0.71    157.68   
    42. A(B   0,B   2,B  10)           98.42  0.000425   -0.69     97.73   
    43. A(B   8,B   2,B  10)           44.51 -0.000555    1.14     45.65   
    44. A(B   5,B   2,B   8)           20.26 -0.000032    0.41     20.68   
    45. A(B   0,B   3,B   7)           56.20  0.000067    0.77     56.97   
    46. A(B   0,B   3,B   1)          152.94 -0.000431   -0.27    152.66   
    47. A(B   1,B   3,B   7)          138.84  0.000398   -0.73    138.11   
    48. A(B   0,B   4,B   9)          157.29 -0.000116    2.79    160.08   
    49. A(B   0,B   4,B   6)           41.66  0.000384   -0.37     41.28   
    50. A(B   6,B   4,B   9)          136.55 -0.000398    0.51    137.07   
    51. A(B   2,B   5,B  10)           69.88  0.000195   -0.06     69.82   
    52. A(B   8,B   5,B  10)           74.64 -0.000163    0.28     74.92   
    53. A(B   2,B   5,B   8)          139.09  0.000249   -0.98    138.12   
    54. A(B   4,B   6,B   9)           17.18  0.000132   -0.35     16.83   
    55. A(B   0,B   6,B   9)           60.28  0.000365   -0.84     59.44   
    56. A(B   0,B   6,B   4)           45.42  0.000241   -0.93     44.49   
    57. A(B   1,B   7,B   3)           19.99 -0.000098    0.32     20.31   
    58. A(B  10,B   7,B  11)           17.13 -0.000049   -1.36     15.77   
    59. A(B   3,B   7,B  11)          177.85 -0.000461   -0.82    177.03   
    60. A(B   3,B   7,B  10)          161.79 -0.000204    0.37    162.16   
    61. A(B   1,B   7,B  10)          153.91 -0.000401    0.33    154.24   
    62. A(B   9,B   7,B  10)           34.91 -0.000058   -2.31     32.60   
    63. A(B   1,B   7,B   9)          170.79  0.000425   -0.37    170.42   
    64. A(B   9,B   7,B  11)           27.37 -0.000060   -1.05     26.32   
    65. A(B   3,B   7,B   9)          154.70  0.000503   -0.54    154.16   
    66. A(B   1,B   7,B  11)          158.23 -0.000293   -0.58    157.65   
    67. A(B   2,B   8,B   5)           20.64 -0.000217    0.56     21.21   
    68. A(B   2,B   8,B  10)           41.87 -0.000461    0.89     42.76   
    69. A(B   5,B   8,B  10)           58.80 -0.000531    0.36     59.16   
    70. A(B   4,B   9,B   7)           53.41 -0.000180   -0.26     53.15   
    71. A(B   0,B   9,B   6)           25.28  0.000268   -0.09     25.19   
    72. A(B   4,B   9,B   6)           26.27  0.000266   -0.16     26.11   
    73. A(B   0,B   9,B   4)           11.74  0.000092   -1.40     10.34   
    74. A(B   6,B   9,B   7)           27.82 -0.000430    0.08     27.91   
    75. A(B   0,B   9,B   7)           48.86 -0.000187    0.06     48.92   
    76. A(B   2,B  10,B   5)           49.10  0.000267   -0.69     48.42   
    77. A(B   5,B  10,B   8)           46.56  0.000694   -0.64     45.92   
    78. A(B   0,B  10,B   7)           66.85 -0.000063    0.61     67.46   
    79. A(B   2,B  10,B   7)           97.44 -0.000397   -0.57     96.87   
    80. A(B   7,B  10,B  11)          148.51  0.000013    2.95    151.46   
    81. A(B   7,B  10,B   8)          151.63 -0.001003   -0.23    151.40   
    82. A(B   5,B  10,B   7)          130.52 -0.000612   -2.08    128.44   
    83. A(B   0,B  10,B   2)           35.51 -0.000281    0.12     35.63   
    84. A(B   0,B  10,B  11)          128.84  0.000118   -0.78    128.05   
    85. A(B   0,B  10,B   8)          129.04  0.000763   -2.05    126.99   
    86. A(B   0,B  10,B   5)           84.15 -0.000050   -0.46     83.69   
    87. A(B   8,B  10,B  11)           45.69  0.000430   -1.15     44.54   
    88. A(B   2,B  10,B  11)          108.57  0.000416   -1.37    107.19   
    89. A(B   2,B  10,B   8)           93.63  0.001016   -2.03     91.59   
    90. A(B   5,B  10,B  11)           80.82  0.000570   -1.33     79.48   
    91. A(B   7,B  11,B  10)           14.36  0.000035   -1.59     12.77   
    92. D(B   5,B   2,B   0,B   6)     -8.30  0.000950   -4.47    -12.78   
    93. D(B  10,B   2,B   0,B   3)    -38.22 -0.000256   -2.42    -40.64   
    94. D(B  10,B   2,B   0,B   9)     42.68 -0.000040   -0.67     42.01   
    95. D(B   5,B   2,B   0,B  10)     25.32  0.000732   -2.97     22.34   
    96. D(B  10,B   2,B   0,B   4)     47.32 -0.000123   -0.79     46.53   
    97. D(B   5,B   2,B   0,B   4)     72.64  0.000610   -3.77     68.87   
    98. D(B  10,B   2,B   0,B   6)    -33.62  0.000218   -5.14    -38.76   
    99. D(B   5,B   2,B   0,B   3)    -12.91  0.000476   -5.39    -18.30   
   100. D(B   7,B   3,B   0,B   2)     38.96  0.000422    1.29     40.25   
   101. D(B   1,B   3,B   0,B  10)   -123.15 -0.000428    0.01   -123.14   
   102. D(B   1,B   3,B   0,B   6)    100.57  0.001454    0.25    100.82   
   103. D(B   7,B   3,B   0,B  10)      9.78  0.000266   -0.76      9.02   
   104. D(B   1,B   3,B   0,B   9)   -150.25 -0.000371    0.93   -149.32   
   105. D(B   1,B   3,B   0,B   2)    -93.97 -0.000272    2.06    -91.91   
   106. D(B   0,B   3,B   1,B   7)    112.42  0.000352   -0.36    112.06   
   107. D(B   1,B   3,B   0,B   4)   -161.11 -0.000393    2.36   -158.76   
   108. D(B   6,B   4,B   0,B   2)   -119.22  0.000551    0.35   -118.87   
   109. D(B   9,B   4,B   0,B   3)     82.01 -0.000084   -1.62     80.39   
   110. D(B   6,B   4,B   0,B   3)    -16.23  0.000039   -0.27    -16.51   
   111. D(B   6,B   4,B   0,B  10)    -69.88  0.000244    1.76    -68.13   
   112. D(B   9,B   4,B   0,B   6)     98.24 -0.000123   -1.35     96.90   
   113. D(B   9,B   4,B   0,B   2)    -20.97  0.000428   -1.00    -21.97   
   114. D(B   9,B   4,B   0,B  10)     28.36  0.000121    0.41     28.77   
   115. D(B  10,B   5,B   2,B   8)     31.39 -0.000589    2.03     33.42   
   116. D(B  10,B   5,B   2,B   0)    -28.92 -0.000962    3.72    -25.19   
   117. D(B   8,B   5,B   2,B  10)    -31.39  0.000589   -2.03    -33.42   
   118. D(B   8,B   5,B   2,B   0)    -60.31 -0.000373    1.69    -58.62   
   119. D(B   4,B   6,B   0,B   3)     82.19  0.001743   -1.41     80.78   
   120. D(B   4,B   6,B   0,B  10)     42.02  0.000049   -1.94     40.08   
   121. D(B   4,B   6,B   0,B   9)     10.89  0.000018   -1.37      9.52   
   122. D(B   4,B   6,B   0,B   2)     66.05 -0.000100    2.66     68.71   
   123. D(B   9,B   6,B   4,B   0)    146.24  0.000084    3.99    150.23   
   124. D(B   9,B   6,B   0,B   3)     71.30  0.001725   -0.04     71.26   
   125. D(B   9,B   6,B   0,B  10)     31.12  0.000031   -0.57     30.55   
   126. D(B   9,B   6,B   0,B   2)     55.16 -0.000118    4.03     59.19   
   127. D(B   0,B   6,B   4,B   9)   -146.24 -0.000084   -3.99   -150.23   
   128. D(B  11,B   7,B   3,B   0)   -113.88  0.000252   -0.10   -113.99   
   129. D(B   9,B   7,B   3,B   1)   -160.22 -0.000387   -0.58   -160.80   
   130. D(B   1,B   7,B   3,B   0)   -149.60  0.000383   -0.09   -149.69   
   131. D(B  11,B   7,B   3,B   1)     35.71 -0.000131   -0.01     35.71   
   132. D(B  10,B   7,B   3,B   0)    -56.69 -0.001024    1.85    -54.84   
   133. D(B  10,B   7,B   3,B   1)     92.90 -0.001407    1.95     94.85   
   134. D(B   9,B   7,B   1,B   3)     64.56  0.001008    0.45     65.01   
   135. D(B  11,B   7,B   1,B   3)   -176.61  0.000671    0.08   -176.54   
   136. D(B  10,B   7,B   1,B   3)   -134.80 -0.000128   -1.54   -136.34   
   137. D(B  10,B   8,B   2,B   5)   -139.46 -0.000561    2.47   -136.98   
   138. D(B  10,B   8,B   2,B   0)      6.37 -0.000967    4.49     10.86   
   139. D(B   5,B   8,B   2,B  10)    139.46  0.000561   -2.47    136.98   
   140. D(B   5,B   8,B   2,B   0)    145.83 -0.000405    2.02    147.85   
   141. D(B   2,B   8,B   5,B  10)    -30.48  0.000499   -1.77    -32.24   
   142. D(B  10,B   8,B   5,B   2)     30.48 -0.000499    1.77     32.24   
   143. D(B   7,B   9,B   4,B   0)    -62.94 -0.000085   -0.01    -62.95   
   144. D(B   0,B   9,B   4,B   6)     73.04  0.000094    1.49     74.53   
   145. D(B   6,B   9,B   0,B   4)     82.46  0.000005    1.49     83.95   
   146. D(B   6,B   9,B   0,B   3)    -15.50 -0.000059   -0.25    -15.75   
   147. D(B   6,B   9,B   4,B   0)    -73.04 -0.000094   -1.49    -74.53   
   148. D(B   4,B   9,B   0,B   2)    156.87  0.000472   -0.93    155.94   
   149. D(B   4,B   9,B   0,B   6)    -82.46 -0.000005   -1.49    -83.95   
   150. D(B   4,B   9,B   0,B  10)   -144.61  0.000162   -0.54   -145.14   
   151. D(B   6,B   9,B   0,B   2)   -120.67  0.000477    0.56   -120.11   
   152. D(B   4,B   9,B   0,B   3)    -97.96 -0.000064   -1.74    -99.70   
   153. D(B   7,B   9,B   4,B   6)     10.10  0.000009    1.49     11.59   
   154. D(B   0,B   9,B   7,B  11)    124.81 -0.000240   -0.63    124.18   
   155. D(B   0,B   9,B   7,B  10)     94.59 -0.000183    0.51     95.10   
   156. D(B   0,B   9,B   7,B   3)    -53.91  0.000058    0.34    -53.57   
   157. D(B   6,B   9,B   0,B  10)    -62.15  0.000166    0.96    -61.19   
   158. D(B   4,B   9,B   7,B   1)    -86.25 -0.001112   -2.03    -88.27   
   159. D(B   4,B   9,B   7,B  11)    138.73 -0.000079   -2.26    136.46   
   160. D(B   4,B   9,B   7,B  10)    108.51 -0.000023   -1.12    107.39   
   161. D(B   4,B   9,B   7,B   3)    -39.99  0.000219   -1.29    -41.28   
   162. D(B   7,B   9,B   6,B   4)   -162.44  0.000232    2.76   -159.68   
   163. D(B   7,B   9,B   6,B   0)   -135.33  0.000182   -0.56   -135.89   
   164. D(B   0,B   9,B   6,B   4)    -27.11  0.000050    3.32    -23.79   
   165. D(B   4,B   9,B   6,B   0)     27.11 -0.000050   -3.32     23.79   
   166. D(B   7,B  10,B   8,B   5)     97.44  0.000565   -4.65     92.79   
   167. D(B   0,B  10,B   8,B   2)     -2.91  0.000420   -1.82     -4.73   
   168. D(B   0,B  10,B   8,B   5)    -18.45  0.000673   -3.20    -21.65   
   169. D(B   2,B  10,B   8,B   5)    -15.54  0.000253   -1.38    -16.92   
   170. D(B  11,B  10,B   8,B   5)   -128.12  0.000847   -3.41   -131.54   
   171. D(B   5,B  10,B   8,B   2)     15.54 -0.000253    1.38     16.92   
   172. D(B  11,B  10,B   7,B   3)   -173.85  0.001249   -1.13   -174.99   
   173. D(B   8,B  10,B   7,B   1)    -20.88 -0.000777    3.01    -17.87   
   174. D(B   8,B  10,B   7,B  11)    102.04 -0.000773    0.45    102.49   
   175. D(B   8,B  10,B   7,B   3)    -71.82  0.000476   -0.68    -72.50   
   176. D(B   5,B  10,B   7,B   1)     50.40 -0.000599   -0.17     50.23   
   177. D(B   5,B  10,B   7,B  11)    173.32 -0.000595   -2.73    170.59   
   178. D(B   5,B  10,B   7,B   3)     -0.53  0.000654   -3.86     -4.39   
   179. D(B   7,B  10,B   5,B   8)   -141.71  0.000996   -1.45   -143.16   
   180. D(B   0,B  10,B   5,B   2)      6.41  0.000215   -0.80      5.61   
   181. D(B   0,B  10,B   5,B   8)    165.70  0.000671   -2.85    162.85   
   182. D(B   2,B  10,B   5,B   8)    159.28  0.000457   -2.05    157.24   
   183. D(B  11,B  10,B   5,B   2)   -124.52  0.000233   -0.55   -125.07   
   184. D(B  11,B  10,B   5,B   8)     34.77  0.000689   -2.60     32.17   
   185. D(B   8,B  10,B   5,B   2)   -159.28 -0.000457    2.05   -157.24   
   186. D(B   0,B  10,B   2,B   5)   -168.98  0.000448   -1.59   -170.57   
   187. D(B  11,B  10,B   2,B   8)     44.18  0.000784   -2.59     41.59   
   188. D(B  11,B  10,B   2,B   5)     59.10  0.000654   -1.59     57.51   
   189. D(B  11,B  10,B   2,B   0)   -131.93  0.000207    0.01   -131.92   
   190. D(B   8,B  10,B   2,B   5)     14.91 -0.000129    1.01     15.92   
   191. D(B   8,B  10,B   2,B   0)   -176.11 -0.000577    2.60   -173.51   
   192. D(B   5,B  10,B   2,B   8)    -14.91  0.000129   -1.01    -15.92   
   193. D(B   5,B  10,B   7,B   9)   -134.92 -0.000664   -0.62   -135.54   
   194. D(B   5,B  10,B   2,B   0)    168.98 -0.000448    1.59    170.57   
   195. D(B   8,B  10,B   0,B   9)    -89.13 -0.000999    2.42    -86.71   
   196. D(B   8,B  10,B   0,B   4)    -98.22 -0.001053    3.95    -94.27   
   197. D(B   8,B  10,B   7,B   9)    153.79 -0.000841    2.56    156.35   
   198. D(B   8,B  10,B   0,B   3)    143.57 -0.001159    0.35    143.92   
   199. D(B   8,B  10,B   0,B   6)    155.06 -0.000808    0.56    155.63   
   200. D(B   8,B  10,B   0,B   2)      5.00 -0.000694    3.21      8.21   
   201. D(B  11,B  10,B   8,B   2)   -112.58  0.000594   -2.04   -114.62   
   202. D(B   5,B  10,B   0,B   9)   -102.49 -0.000677    0.45   -102.03   
   203. D(B   5,B  10,B   0,B   4)   -111.58 -0.000731    1.98   -109.60   
   204. D(B   5,B  10,B   0,B   3)    130.22 -0.000837   -1.62    128.60   
   205. D(B   5,B  10,B   0,B   6)    141.70 -0.000486   -1.40    140.30   
   206. D(B   5,B  10,B   0,B   2)     -8.35 -0.000372    1.24     -7.11   
   207. D(B   7,B  11,B  10,B   0)    110.37  0.000109   -6.34    104.03   
   208. D(B   7,B  11,B  10,B   2)    144.07  0.000033    3.42    147.49   
   209. D(B   7,B  11,B  10,B   8)   -139.50  0.001369   -0.55   -140.06   
   210. D(B   7,B  11,B  10,B   5)   -174.86  0.000496    2.01   -172.85   
   211. D(B  10,B  11,B   7,B   9)   -102.17 -0.000102    1.73   -100.44   
   212. D(B  10,B  11,B   7,B   1)     95.60 -0.000845    1.11     96.70   
   213. D(B  10,B  11,B   7,B   3)     63.05 -0.000089    0.68     63.72   
    ----------------------------------------------------------------------------

Geometry step timings:
Preparation and reading OPT file:      0.000 s ( 0.315 %)
Internal coordinates            :      0.000 s ( 0.669 %)
B/P matrices and projection     :      0.004 s (26.910 %)
Hessian update/contruction      :      0.003 s (20.769 %)
Making the step                 :      0.005 s (35.083 %)
Converting the step to Cartesian:      0.000 s ( 3.034 %)
Storing new data                :      0.000 s ( 0.623 %)
Checking convergence            :      0.000 s ( 0.865 %)
Final printing                  :      0.002 s (11.692 %)
Total time                      :      0.015 s

Time for energy+gradient        :      0.067 s
Time for complete geometry iter :      0.085 s




    ----------------------------------------------------------------------------
                                  WARNING !!!
       The optimization did not converge but reached the maximum number of
       optimization cycles.
       Please check your results very carefully.
    ----------------------------------------------------------------------------



--------------------------------
SUGGESTED CITATIONS FOR THIS RUN
--------------------------------

Below you find a list of papers that are relevant to this ORCA run
We neither can nor want to force you to cite these papers, but we appreciate if you do
You receive ORCA, which is the product of decades of hard work by many enthusiastic individuals, for free
The only thing we kindly ask in return is that you cite our papers,
We deeply appreciate it, if you show your appreciation for ORCA by not just citing the generic ORCA reference.

Please note that relegating all ORCA citations to the supporting information does *not* help us.
SI sections are not indexed - citations you put there will not count into any citation statistics
But we need these citations in order to attract the funding resources that allow us to do what we are doing

Therefore, if you are a happy ORCA user, please consider citing a few of the papers listed below in the main body of your paper

In addition to the list printed below, the program has created the file random_d2.10_003_m1.bibtex that contains the list in bibtex format
You can import this file easily into all common literature databanks and citation aid programs

It goes without saying that in many instances, there are alternative algorithms to achieve similar
results as the ones you have gotten from ORCA. It is, of course, also the case that in some instances
ORCA just re-implements algorithms worked out by others. We are fully aware of that and we are also
fully appreciative of our colleagues work. Hence this citation list should not be read as indicating
that the listed papers, which are focused on our own work, are the only ones worth citing. It simply
meant to make it easier for users to cite ORCA specific papers. It is not a substitute for doing your
own literature research and citing the relevant literature in a scientifically appropriate manner.

List of essential papers. We consider these as the minimum necessary citations

  1. Bannwarth, C.; Ehlert, S.; Grimme, S.
     GFN2-xTB—An Accurate and Broadly Parametrized Self-Consistent Tight-Binding Quantum Chemical Method with Multipole Electrostatics and Density-Dependent Dispersion Contributions
     J. Chem. Theory Comput. 2019 15(3), 1652-1671
     doi.org/10.1021/acs.jctc.8b01176
  2. Neese, F.
     Software update: the ORCA program system, version 6.0
     WIRES Comput. Molec. Sci. 2025 15(1), e70019
     doi.org/10.1002/wcms.70019

List of papers to cite with high priority. The work reported in these papers was absolutely
necessary for this run to complete.
Our perspective: the developers of density functionals and basis sets usually get cited in chemistry papers
Good! But without the algorithms to do something with them, the functionals or basis sets would not do anything.
Hence, in our opinion, the algorithm design and method developments papers are equally worthy of getting cited

  1. Bannwarth, C.; Caldeweyher, E.; Ehlert, S.; Hansen, A.; Pracht, P.; Seibert, J.; Spicher, S.; Grimme, S.
     Extended tight-binding quantum chemistry methods
     WIRES Comput. Molec. Sci. 2020 11(2), e1493
     doi.org/10.1002/wcms.1493

List of suggested additional citations. These are papers that are important in the 'surrounding' of 
of this run, or papers that preceded the highly important papers. If you like your results we are grateful for a citation.

  1. Neese, F.
     The ORCA program system
     WIRES Comput. Molec. Sci. 2012 2(1), 73-78
     doi.org/10.1002/wcms.81
  2. Neese, F.
     Software update: the ORCA program system, version 4.0
     WIRES Comput. Molec. Sci. 2018 8(1), 1-6
     doi.org/10.1002/wcms.1327
  3. Neese, F.; Wennmohs, F.; Becker, U.; Riplinger, C.
     The ORCA quantum chemistry program package
     J. Chem. Phys. 2020 152(22), 224108
     doi.org/10.1063/5.0004608
  4. Neese, F.
     Software update: The ORCA program system—Version 5.0
     WIRES Comput. Molec. Sci. 2022 12(1), e1606
     doi.org/10.1002/wcms.1606

List of optional additional citations

  1. Neese, F.
     Approximate second-order SCF convergence for spin unrestricted wavefunctions
     Chem. Phys. Lett. 2000 325(1-3), 93-98
     doi.org/10.1016/s0009-2614(00)00662-x

Timings for individual modules:

Sum of individual times          ...        4.351 sec (=   0.073 min)
Geometry relaxation              ...        0.901 sec (=   0.015 min)  20.7 %
XTB module                       ...        3.451 sec (=   0.058 min)  79.3 %
                             ****ORCA TERMINATED NORMALLY****
TOTAL RUN TIME: 0 days 0 hours 0 minutes 4 seconds 850 msec
