
                                 *****************
                                 * O   R   C   A *
                                 *****************

                                            #,                                       
                                            ###                                      
                                            ####                                     
                                            #####                                    
                                            ######                                   
                                           ########,                                 
                                     ,,################,,,,,                         
                               ,,#################################,,                 
                          ,,##########################################,,             
                       ,#########################################, ''#####,          
                    ,#############################################,,   '####,        
                  ,##################################################,,,,####,       
                ,###########''''           ''''###############################       
              ,#####''   ,,,,##########,,,,          '''####'''          '####       
            ,##' ,,,,###########################,,,                        '##       
           ' ,,###''''                  '''############,,,                           
         ,,##''                                '''############,,,,        ,,,,,,###''
      ,#''                                            '''#######################'''  
     '                                                          ''''####''''         
             ,#######,   #######,   ,#######,      ##                                
            ,#'     '#,  ##    ##  ,#'     '#,    #''#        ,####,    ,#,          
            ##       ##  ##   ,#'  ##            #'  '#       #'       ,# #          
            ##       ##  #######   ##           ,######,      #####,      #          
            '#,     ,#'  ##    ##  '#,     ,#' ,#      #,     #,   #      #          
             '#######'   ##     ##  '#######'  #'      '#     '####' #    #          



                #########################################################
                #                        -***-                          #
                #          Department of theory and spectroscopy        #
                #                                                       #
                #                      Frank Neese                      #
                #                                                       #
                #     Directorship, Architecture, Infrastructure        #
                #                    SHARK, DRIVERS                     #
                #        Core code/Algorithms in most modules           #
                #                                                       #
                #        Max Planck Institute fuer Kohlenforschung      #
                #                Kaiser Wilhelm Platz 1                 #
                #                 D-45470 Muelheim/Ruhr                 #
                #                      Germany                          #
                #                                                       #
                #                  All rights reserved                  #
                #                        -***-                          #
                #########################################################


                         Program Version 6.1.1  -  RELEASE   -
                                (GIT: $487d211c$)
                          ($2025-11-21 10:33:24 +0100$)
                                                                         
                                  - NO-DMRG VERSION -                    
                                                                         


 With contributions from (in alphabetic order):
[Max-Planck-Institut fuer Kohlenforschung]                               
  Daniel Aravena         : Magnetic Suceptibility                        
  Michael Atanasov       : Ab Initio Ligand Field Theory (pilot matlab implementation)
  Alexander A. Auer      : GIAO ZORA, VPT2 properties, NMR spectrum      
  Ute Becker             : All parallelization in ORCA, NUMFREQ, NUMCALC 
  Giovanni Bistoni       : ED, misc. LED, open-shell LED, HFLD           
  Dmytro Bykov           : pre 5.0 version of the SCF Hessian            
  Marcos Casanova-Páez   : Triplet and SCS-CIS(D). UHF-(DLPNO)-IP/EA/STEOM-CCSD. UHF-CVS-IP/STEOM-CCSD   
  Vijay G. Chilkuri      : MRCI spin determinant printing, contributions to CSF-ICE 
  Pauline Colinet        : FMM embedding                                 
  Dipayan Datta          : RHF DLPNO-CCSD density                        
  Achintya Kumar Dutta   : EOM-CC, STEOM-CC                              
  Nicolas Foglia         : Exact transition moments, OPA infrastructure, MCD improvements    
  Dmitry Ganyushin       : Spin-Orbit,Spin-Spin,Magnetic field MRCI      
  Miquel Garcia-Rates    : C-PCM and meta-GGA Hessian, CCSD/C-PCM, Gaussian charge scheme 
  Tiago L. C. Gouveia    : GS-ROHF, GS-ROCIS                             
  Yang Guo               : DLPNO-NEVPT2, F12-NEVPT2, CIM, IAO-localization        
  Andreas Hansen         : Spin unrestricted coupled pair/coupled cluster methods 
  Ingolf Harden          : AUTO-CI MPn and infrastructure                
  Benjamin Helmich-Paris : MC-RPA, TRAH-(SCF,CASSCF), AVAS, COSX integrals, SCF dyn. polar., MC-PDFT, srDFT 
  Lee Huntington         : MR-EOM, pCC                                   
  Robert Izsak           : Overlap fitted RIJCOSX, COSX-SCS-MP3, EOM     
  Riya Kayal             : Wick's Theorem for AUTO-CI, AUTO-CI UHF-CCSDT 
  Emily Kempfer          : AUTO-CI RHF CISDT and CCSDT, approximate NEVPT4
  Christian Kollmar      : KDIIS, OOCD, Brueckner-CCSD(T), CCSD density, CASPT2, CASPT2-K, improved NEVPT2 
  Axel Koslowski         : Symmetry handling                             
  Simone Kossmann        : meta-GGA functionals, TD-DFT gradient, OOMP2, (MP2 Hessian; deprecated post 5.0) 
  Lucas Lang             : DCDCAS, Hyperfine gauge corrections, ICE-SOC+SSC
  Marvin Lechner         : AUTO-CI (C++ implementation), FIC-MRCC        
  Spencer Leger          : CASSCF response                               
  Dagmar Lenk            : GEPOL surface, SMD, ORCA-2-JSON               
  Dimitrios Liakos       : Extrapolation schemes; Compound Job, Property file
  Dimitrios Manganas     : Further ROCIS development; embedding schemes. LFT, Crystal Embedding 
  Dimitrios Pantazis     : SARC Basis sets                               
  Anastasios Papadopoulos: AUTO-CI, single reference methods and gradients 
  Taras Petrenko         : pre 6.0 DFT Hessian and TD-DFT gradient,  ECA, NRVS 
  Petra Pikulova         : Analytic Raman intensities                    
  Peter Pinski           : DLPNO-MP2, DLPNO-MP2 Gradient                 
  Shashank Vittal Rao    : ES-AILFT, MagRelax                            
  Christoph Reimann      : Effective Core Potentials                     
  Marius Retegan         : Local ZFS, SOC                                
  Christoph Riplinger    : Optimizer, TS searches, QM/MM, DLPNO-CCSD(T), (RO)-DLPNO pert. Triples 
  Michael Roemelt        : Original ROCIS implementation, recursive CI coupling coefficients
  Masaaki Saitow         : Open-shell DLPNO-CCSD energy and density      
  Barbara Sandhoefer     : DKH picture change effects                    
  Yorick L. A. Schmerwitz: GMF and freeze-and-release deltaSCF, NEB S-IDPP initial path                    
  Kantharuban Sivalingam : CASSCF convergence/infrastructure, NEVPT2, NEVPT3, NEVPT4(SD), FIC-MRCI and CEPA variants
  Bernardo de Souza      : ESD, SOC TD-DFT                               
  Georgi L. Stoychev     : AutoAux, RI-MP2 NMR, DLPNO-MP2 response, X2C  
  Van Anh Tran           : RI-MP2 g-tensors                              
  Willem Van den Heuvel  : Paramagnetic NMR                              
  Zikuan Wang            : NOTCH, Electric field optimization            
  Frank Wennmohs         : Technical directorship and infrastructure     
  Hang Xu                : AUTO-CI-Response properties                   
                                                                         
[FACCTs GmbH]                                                            
  Markus Bursch, Nicolas Foglia, Miquel Garcia-Rates, Ingolf Harden, Hagen Neugebauer, Anastasios Papadopoulos, 
  Christoph Riplinger, Bernardo de Souza, Georgi L. Stoychev                                                    
                                                                 
  APM, various basis sets, CI-OPT, improved COSX, DLPNO-Multilevel,           
  DOCKER, DRACO, updates on ESD, Fragmentator, GOAT, IRC, LR-CPCM, L-BFGS, MBIS, meta-GGA TD-DFT gradient, ML-optimized integration grids, 
  MM, NACMEs, nearIR, NEB, NEB-TS, NL-DFT gradient (VV10), 2- and 3-layer-ONIOM, interface openCOSMO-RS, QMMM,   
  Crystal-QMMM, RESP, rigid body optimization, SF, symmetry and pop. for TD-DFT, various functionals, SOLVATOR                                   
                                                                         
[Other institutions]                                                     
  V. Asgeirsson          : NEB                                           
  Christoph Bannwarth    : sTDA-DFT, sTD-DFT, PBEh-3c, B97-3c, D3        
  Giovanni Bistoni       : ETS/NOCV, ADLD/ADEX, COVALED                  
  Martin Brehm           : Molecular dynamics                            
  Ronald Cardenas        : ETS/NOCV                                      
  Martina Colucci        : COVALED                                       
  Sebastian Ehlert       : rSCAN, r2SCAN, r2SCAN-3c, D4, dhf basis sets  
  Marvin Friede          : D4 for Fr, Ra, Ac-Lr                          
  Lars Goerigk           : TD-DFT with DH, B97 family of functionals     
  Stefan Grimme          : VdW corrections, initial TS optimization, DFT functionals, gCP, sTDA/sTD-DF 
  Waldemar Hujo          : DFT-NL                                        
  H. Jonsson             : NEB                                           
  Holger Kruse           : gCP                                           
  Marcel Mueller         : wB97X-3c, vDZP basis set                      
  Hagen Neugebauer       : wr2SCAN, Native XTB                           
  Gianluca Regni         : ADLD/ADEX                                     
  Tobias Risthaus        : pre 6.0 range-separated hybrid DFT and stability analysis
  Lukas Wittmann         : regularized MP2, r2SCAN double-hybrids, wr2SCAN        
                                                                         
We gratefully acknowledge several colleagues who have allowed us to      
interface, adapt or use parts of their codes:                            
  Ed Valeev, F. Pavosevic, A. Kumar             : LibInt (2-el integral package), F12 methods 
  Garnet Chan, S. Sharma, J. Yang, R. Olivares  : DMRG                   
  Ulf Ekstrom                                   : XCFun DFT Library      
  Mihaly Kallay                                 : mrcc  (arbitrary order and MRCC methods)
  Frank Weinhold                                : gennbo (NPA and NBO analysis)           
  Simon Mueller                                 : openCOSMO-RS                            
  Christopher J. Cramer and Donald G. Truhlar   : smd solvation model                     
  S Lehtola, MJT Oliveira, MAL Marques          : LibXC Library                           
  Liviu Ungur et al                             : ANISO software                          


 Your calculation uses the libint2 library for the computation of 2-el integrals
 For citations please refer to: http://libint.valeyev.net

 Your ORCA version has been built with support for libXC version: 7.0.0
 For citations please refer to: https://libxc.gitlab.io

 This ORCA versions uses:
   CBLAS   interface :  Fast vector & matrix operations
   LAPACKE interface :  Fast linear algebra routines
   SCALAPACK package :  Parallel linear algebra routines
   Shared memory     :  Shared parallel matrices
   BLAS/LAPACK       :  OpenBLAS 0.3.29  USE64BITINT DYNAMIC_ARCH NO_AFFINITY Zen SINGLE_THREADED
        Core in use  :  Zen
   Copyright (c) 2011-2014, The OpenBLAS Project


  ***********************************
  * Starting time: Fri Apr 17 12:14:16 2026
  * Host name:     vmi3233575
  * Process ID:    333650
  * Working dir.:  /root/orca_b12_vps_pack/jobs/01_xtb/mult_1
  ***********************************

NOTE: MaxCore=500 MB was set to SCF,MP2,MDCI,CIPSI,MRCI,RASCI and CIS
      => If you want to overwrite this, your respective input block should be placed after the MaxCore statement


***************************************
The coordinates will be read from file: ../../../starts/random_d1.90_010.xyz
***************************************


Your calculation utilizes the semiempirical GFN2-xTB method
Please cite in your paper:
Bannwarth, C.; Ehlert S.; Grimme, S. J. Chem. Theory Comput. 2019, 15, 1652.
   

================================================================================

================================================================================
                                        WARNINGS
                       Please study these warnings very carefully!
================================================================================


WARNING: Geometry Optimization
  ===> : Switching off AutoStart
         For restart on a previous wavefunction, please use MOREAD

WARNING: Found dipole moment calculation with XTB calculation
  ===> : Switching off dipole moment calculation

Environment variable XTBEXE for xtb has been set!

================================================================================
                                       INPUT FILE
================================================================================
NAME = random_d1.90_010_m1.inp
|  1> ! GFN2-xTB TightSCF TightOpt
|  2> 
|  3> %pal
|  4>   nprocs 1
|  5> end
|  6> 
|  7> %maxcore 500
|  8> 
|  9> * xyzfile 0 1 ../../../starts/random_d1.90_010.xyz
| 10> 
| 11>                          ****END OF INPUT****
================================================================================

                       *****************************
                       * Geometry Optimization Run *
                       *****************************

Geometry optimization settings:
Update method            Update   .... BFGS
Choice of coordinates    CoordSys .... (2022) Redundant Internals
Initial Hessian          InHess   .... Almloef's Model
Max. no of cycles        MaxIter  .... 50

Convergence Tolerances:
Energy Change            TolE     ....  1.0000e-06 Eh
Max. Gradient            TolMAXG  ....  1.0000e-04 Eh/bohr
RMS Gradient             TolRMSG  ....  3.0000e-05 Eh/bohr
Max. Displacement        TolMAXD  ....  1.0000e-03 bohr
RMS Displacement         TolRMSD  ....  6.0000e-04 bohr
Strict Convergence                .... False

------------------------------------------------------------------------------
                        ORCA OPTIMIZATION COORDINATE SETUP
------------------------------------------------------------------------------

The optimization will be done in redundant internal coordinates (2022)
Making redundant internal coordinates   ...  (2022 redundants) done
Evaluating the initial hessian          ...  (Almloef) done
Evaluating the coordinates              ...  done
Calculating the B-matrix                .... done
Calculating the G-matrix                .... done
The number of degrees of freedom        ....  166

    -----------------------------------------------------------------
                    Redundant Internal Coordinates


    -----------------------------------------------------------------
         Definition                    Initial Value    Approx d2E/dq
    -----------------------------------------------------------------
      1. B(B   4,B   0)                  3.1276         0.010000   
      2. B(B   4,B   1)                  3.0831         0.010000   
      3. B(B   5,B   4)                  2.7529         0.010000   
      4. B(B   5,B   3)                  2.2727         0.032745   
      5. B(B   5,B   2)                  1.5107         0.538081   
      6. B(B   6,B   5)                  2.2400         0.036913   
      7. B(B   7,B   0)                  2.3535         0.024329   
      8. B(B   8,B   3)                  2.3414         0.025442   
      9. B(B   8,B   0)                  2.9997         0.010000   
     10. B(B   8,B   5)                  2.9758         0.010000   
     11. B(B   8,B   2)                  2.8907         0.010000   
     12. B(B   9,B   0)                  2.5960         0.010000   
     13. B(B   9,B   5)                  3.0466         0.010000   
     14. B(B   9,B   4)                  1.3188         1.088778   
     15. B(B  10,B   0)                  2.6270         0.010000   
     16. B(B  10,B   7)                  2.1070         0.060190   
     17. B(B  11,B   1)                  2.5246         0.012979   
     18. B(B  11,B   0)                  1.9619         0.102550   
     19. B(B  11,B   2)                  1.9977         0.089914   
     20. A(B   8,B   0,B   9)          116.2119         0.128711   
     21. A(B   7,B   0,B  11)          108.0281         0.204136   
     22. A(B   8,B   0,B  10)           63.5339         0.127700   
     23. A(B   4,B   0,B  11)           99.7185         0.149493   
     24. A(B   4,B   0,B   8)          115.8108         0.114525   
     25. A(B   4,B   0,B   7)          121.4804         0.132680   
     26. A(B   4,B   0,B  10)          126.3276         0.123795   
     27. A(B   7,B   0,B   8)          108.7097         0.137582   
     28. A(B  10,B   0,B  11)          133.9399         0.180716   
     29. A(B   7,B   0,B   9)          101.4980         0.156956   
     30. A(B   4,B   0,B   9)           24.4545         0.124704   
     31. A(B   9,B   0,B  11)          121.9178         0.183112   
     32. A(B   9,B   0,B  10)          103.2978         0.143133   
     33. A(B   8,B   0,B  11)          100.0313         0.156281   
     34. A(B   7,B   0,B  10)           49.6803         0.155226   
     35. A(B   4,B   1,B  11)           89.3501         0.128317   
     36. A(B   5,B   2,B   8)           78.2202         0.196195   
     37. A(B   5,B   2,B  11)          106.3600         0.314242   
     38. A(B   8,B   2,B  11)          102.7558         0.160500   
     39. A(B   5,B   3,B   8)           80.3084         0.178824   
     40. A(B   1,B   4,B   9)          106.4365         0.196148   
     41. A(B   0,B   4,B   5)           47.1154         0.120339   
     42. A(B   0,B   4,B   1)           65.7106         0.112814   
     43. A(B   0,B   4,B   9)           54.5753         0.192258   
     44. A(B   1,B   4,B   5)           76.9830         0.121519   
     45. A(B   5,B   4,B   9)           89.7162         0.230004   
     46. A(B   2,B   5,B   6)          118.7604         0.273135   
     47. A(B   3,B   5,B   8)           50.8566         0.142002   
     48. A(B   4,B   5,B   9)           25.6505         0.122522   
     49. A(B   6,B   5,B   8)          126.7717         0.143459   
     50. A(B   3,B   5,B   6)           93.6230         0.186718   
     51. A(B   3,B   5,B   9)           78.2453         0.138973   
     52. A(B   6,B   5,B   9)          104.5699         0.140347   
     53. A(B   2,B   5,B   9)          128.3294         0.183166   
     54. A(B   4,B   5,B   8)          129.9274         0.124554   
     55. A(B   3,B   5,B   4)           96.2377         0.152796   
     56. A(B   2,B   5,B   3)          122.3999         0.268208   
     57. A(B   4,B   5,B   6)           85.3992         0.154550   
     58. A(B   2,B   5,B   4)          129.9568         0.209213   
     59. A(B   2,B   5,B   8)           71.9806         0.188874   
     60. A(B   8,B   5,B   9)          104.3026         0.116850   
     61. A(B   0,B   7,B  10)           71.9251         0.191055   
     62. A(B   2,B   8,B   5)           29.7992         0.120704   
     63. A(B   3,B   8,B   5)           48.8350         0.139060   
     64. A(B   2,B   8,B   3)           78.4435         0.142729   
     65. A(B   0,B   8,B   5)           46.8413         0.117958   
     66. A(B   0,B   8,B   2)           50.8370         0.120081   
     67. A(B   0,B   8,B   3)           71.2587         0.138077   
     68. A(B   0,B   9,B   4)          100.9702         0.249646   
     69. A(B   0,B   9,B   5)           48.9914         0.127191   
     70. A(B   4,B   9,B   5)           64.6333         0.199452   
     71. A(B   0,B  10,B   7)           58.3945         0.170296   
     72. A(B   1,B  11,B   2)          103.2810         0.185945   
     73. A(B   0,B  11,B   1)           96.5606         0.188874   
     74. A(B   0,B  11,B   2)           79.4301         0.243777   
     75. D(B   9,B   4,B   0,B  11)    156.8016         0.010000   
     76. D(B   5,B   4,B   0,B  10)    108.7267         0.010000   
     77. D(B   9,B   4,B   0,B   8)    -96.9896         0.010000   
     78. D(B   0,B   4,B   1,B  11)    -16.8365         0.010000   
     79. D(B   5,B   4,B   0,B   8)     33.7286         0.010000   
     80. D(B   5,B   4,B   1,B  11)     31.7128         0.010000   
     81. D(B   9,B   4,B   1,B  11)    -54.0721         0.010000   
     82. D(B   9,B   4,B   0,B   7)     38.5693         0.010000   
     83. D(B   5,B   4,B   0,B   7)    169.2874         0.010000   
     84. D(B   5,B   4,B   0,B  11)    -72.4803         0.010000   
     85. D(B   9,B   4,B   0,B  10)    -21.9914         0.010000   
     86. D(B   3,B   5,B   4,B   9)    -45.4900         0.010000   
     87. D(B   6,B   5,B   4,B   0)   -176.7845         0.010000   
     88. D(B   3,B   5,B   4,B   1)   -152.4416         0.010000   
     89. D(B   2,B   5,B   4,B   9)     97.1431         0.010000   
     90. D(B   2,B   5,B   4,B   1)     -9.8085         0.010000   
     91. D(B   6,B   5,B   4,B   9)   -138.6415         0.010000   
     92. D(B   4,B   5,B   3,B   8)    138.0311         0.010000   
     93. D(B   3,B   5,B   2,B  11)    106.9626         0.016630   
     94. D(B   6,B   5,B   3,B   8)   -136.2087         0.010000   
     95. D(B   9,B   5,B   3,B   8)    119.6514         0.010000   
     96. D(B   6,B   5,B   2,B  11)   -137.3358         0.016630   
     97. D(B   6,B   5,B   2,B   8)    122.6529         0.016630   
     98. D(B   2,B   5,B   4,B   0)     59.0001         0.010000   
     99. D(B   2,B   5,B   3,B   8)     -8.5338         0.010000   
    100. D(B   4,B   5,B   2,B  11)    -27.4302         0.016630   
    101. D(B   4,B   5,B   2,B   8)   -127.4416         0.016630   
    102. D(B   8,B   5,B   2,B  11)    100.0114         0.016630   
    103. D(B   6,B   5,B   4,B   1)    114.4069         0.010000   
    104. D(B   3,B   5,B   2,B   8)      6.9513         0.016630   
    105. D(B  10,B   7,B   0,B  11)    132.9129         0.010000   
    106. D(B  10,B   7,B   0,B   4)   -113.0424         0.010000   
    107. D(B  10,B   7,B   0,B   9)    -97.7717         0.010000   
    108. D(B  10,B   7,B   0,B   8)     25.2376         0.010000   
    109. D(B   2,B   8,B   5,B   9)    126.1640         0.010000   
    110. D(B   2,B   8,B   5,B   4)    127.4738         0.010000   
    111. D(B   2,B   8,B   5,B   6)   -112.8639         0.010000   
    112. D(B   3,B   8,B   5,B   9)    -61.4070         0.010000   
    113. D(B   3,B   8,B   5,B   4)    -60.0972         0.010000   
    114. D(B   3,B   8,B   5,B   6)     59.5651         0.010000   
    115. D(B   3,B   8,B   5,B   2)    172.4290         0.010000   
    116. D(B   0,B   8,B   3,B   5)    -48.4837         0.010000   
    117. D(B   2,B   8,B   3,B   5)      3.8320         0.010000   
    118. D(B   0,B   8,B   2,B  11)    -35.0152         0.010000   
    119. D(B   0,B   8,B   2,B   5)     69.3323         0.010000   
    120. D(B   3,B   8,B   2,B  11)   -110.1580         0.010000   
    121. D(B   3,B   8,B   2,B   5)     -5.8105         0.010000   
    122. D(B   2,B   8,B   0,B  10)    169.7140         0.010000   
    123. D(B   2,B   8,B   0,B   7)    148.4206         0.010000   
    124. D(B   2,B   8,B   0,B  11)     35.3584         0.010000   
    125. D(B   5,B   8,B   2,B  11)   -104.3474         0.010000   
    126. D(B   3,B   8,B   0,B   4)     19.5388         0.010000   
    127. D(B   3,B   8,B   0,B   9)     -7.7186         0.010000   
    128. D(B   2,B   8,B   5,B   3)   -172.4290         0.010000   
    129. D(B   3,B   8,B   0,B   7)   -121.3787         0.010000   
    130. D(B   3,B   8,B   0,B  11)    125.5592         0.010000   
    131. D(B   3,B   8,B   0,B  10)   -100.0852         0.010000   
    132. D(B   5,B   9,B   0,B  11)    -68.9030         0.010000   
    133. D(B   4,B   9,B   0,B  10)    161.9409         0.010000   
    134. D(B   4,B   9,B   0,B   7)   -147.1400         0.010000   
    135. D(B   4,B   9,B   0,B   8)     95.1493         0.010000   
    136. D(B   5,B   9,B   0,B   8)     53.4671         0.010000   
    137. D(B   4,B   9,B   0,B  11)    -27.2208         0.010000   
    138. D(B   0,B   9,B   5,B   6)    176.6227         0.010000   
    139. D(B   0,B   9,B   5,B   2)     29.5649         0.010000   
    140. D(B   4,B   9,B   5,B   8)    177.6793         0.010000   
    141. D(B   4,B   9,B   5,B   3)    133.6067         0.010000   
    142. D(B   4,B   9,B   5,B   6)     42.8846         0.010000   
    143. D(B   4,B   9,B   5,B   2)   -104.1732         0.010000   
    144. D(B   5,B   9,B   4,B   0)     33.7355         0.064931   
    145. D(B   5,B   9,B   4,B   1)     76.3316         0.064931   
    146. D(B   0,B   9,B   4,B   1)     42.5961         0.064931   
    147. D(B   0,B   9,B   4,B   5)    -33.7355         0.064931   
    148. D(B   0,B   9,B   5,B   3)    -92.6551         0.010000   
    149. D(B   5,B   9,B   0,B   7)    171.1778         0.010000   
    150. D(B   7,B  10,B   0,B   4)    103.0684         0.010000   
    151. D(B   7,B  10,B   0,B   9)     93.9027         0.010000   
    152. D(B   7,B  10,B   0,B   8)   -153.1845         0.010000   
    153. D(B   7,B  10,B   0,B  11)    -75.2793         0.010000   
    154. D(B   1,B  11,B   2,B   8)    138.1080         0.010000   
    155. D(B   0,B  11,B   2,B   8)     43.7853         0.010000   
    156. D(B   0,B  11,B   2,B   5)    -37.4896         0.010000   
    157. D(B   2,B  11,B   1,B   4)    -55.5796         0.010000   
    158. D(B   0,B  11,B   1,B   4)     25.0642         0.010000   
    159. D(B   1,B  11,B   0,B   7)    102.7337         0.010000   
    160. D(B   1,B  11,B   0,B   8)   -143.6792         0.010000   
    161. D(B   2,B  11,B   0,B   4)     77.2775         0.010000   
    162. D(B   2,B  11,B   0,B   9)     88.3538         0.010000   
    163. D(B   2,B  11,B   0,B  10)   -104.0730         0.010000   
    164. D(B   1,B  11,B   2,B   5)     56.8331         0.010000   
    165. D(B   2,B  11,B   0,B   7)   -154.9227         0.010000   
    166. D(B   2,B  11,B   0,B   8)    -41.3357         0.010000   
    -----------------------------------------------------------------

Number of atoms                         .... 12
Number of degrees of freedom            .... 166


         *************************************************************
         *                GEOMETRY OPTIMIZATION CYCLE   1            *
         *************************************************************
---------------------------------
CARTESIAN COORDINATES (ANGSTROEM)
---------------------------------
  B    -0.584990    0.077954    0.838390
  B     2.013562    2.104841    1.540926
  B    -0.265691    1.609692   -1.150034
  B    -0.473672   -1.655859   -1.797567
  B     2.404946   -0.746834    0.436278
  B     0.511851    0.318713   -1.254602
  B     2.083989    0.132754   -2.839410
  B    -1.767884   -0.500715    2.789035
  B    -2.380604   -0.323841   -1.530626
  B     1.474272   -1.494908    0.996201
  B    -2.617602   -1.552329    1.173073
  B    -0.398177    2.030533    0.798335

----------------------------
CARTESIAN COORDINATES (A.U.)
----------------------------
  NO LB    ZA    FRAG    MASS        X           Y           Z
   0 B   5.0000    0    10.810   -1.105470    0.147311    1.584327
   1 B   5.0000    0    10.810    3.805081    3.977573    2.911928
   2 B   5.0000    0    10.810   -0.502084    3.041877   -2.173250
   3 B   5.0000    0    10.810   -0.895110   -3.129120   -3.396908
   4 B   5.0000    0    10.810    4.544689   -1.411313    0.824447
   5 B   5.0000    0    10.810    0.967259    0.602280   -2.370855
   6 B   5.0000    0    10.810    3.938169    0.250868   -5.365707
   7 B   5.0000    0    10.810   -3.340817   -0.946214    5.270513
   8 B   5.0000    0    10.810   -4.498689   -0.611970   -2.892463
   9 B   5.0000    0    10.810    2.785970   -2.824967    1.882547
  10 B   5.0000    0    10.810   -4.946552   -2.933476    2.216786
  11 B   5.0000    0    10.810   -0.752446    3.837150    1.508635

      -----------------------------------------------------------      
     |                   =====================                   |     
     |                           x T B                           |     
     |                   =====================                   |     
     |                         S. Grimme                         |     
     |          Mulliken Center for Theoretical Chemistry        |     
     |                    University of Bonn                     |     
      -----------------------------------------------------------      

   * xtb version 6.6.1 (unknown) compiled by 'builduser@buildhost' on 2023-08-07

   xtb is free software: you can redistribute it and/or modify it under
   the terms of the GNU Lesser General Public License as published by
   the Free Software Foundation, either version 3 of the License, or
   (at your option) any later version.
   
   xtb is distributed in the hope that it will be useful,
   but WITHOUT ANY WARRANTY; without even the implied warranty of
   MERCHANTABILITY or FITNESS FOR A PARTICULAR PURPOSE.  See the
   GNU Lesser General Public License for more details.
   
   Cite this work as:
   * C. Bannwarth, E. Caldeweyher, S. Ehlert, A. Hansen, P. Pracht,
     J. Seibert, S. Spicher, S. Grimme, WIREs Comput. Mol. Sci., 2020, 11,
     e01493. DOI: 10.1002/wcms.1493
   
   for GFN2-xTB:
   * C. Bannwarth, S. Ehlert and S. Grimme., J. Chem. Theory Comput., 2019,
     15, 1652-1671. DOI: 10.1021/acs.jctc.8b01176
   for GFN1-xTB:
   * S. Grimme, C. Bannwarth, P. Shushkov, J. Chem. Theory Comput., 2017,
     13, 1989-2009. DOI: 10.1021/acs.jctc.7b00118
   for GFN0-xTB:
   * P. Pracht, E. Caldeweyher, S. Ehlert, S. Grimme, ChemRxiv, 2019, preprint.
     DOI: 10.26434/chemrxiv.8326202.v1
   for GFN-FF:
   * S. Spicher and S. Grimme, Angew. Chem. Int. Ed., 2020, 59, 15665-15673.
     DOI: 10.1002/anie.202004239
   
   for ALPB and GBSA implicit solvation:
   * S. Ehlert, M. Stahn, S. Spicher, S. Grimme, J. Chem. Theory Comput.,
     2021, 17, 4250-4261. DOI: 10.1021/acs.jctc.1c00471
   
   for DFT-D4:
   * E. Caldeweyher, C. Bannwarth and S. Grimme, J. Chem. Phys., 2017,
     147, 034112. DOI: 10.1063/1.4993215
   * E. Caldeweyher, S. Ehlert, A. Hansen, H. Neugebauer, S. Spicher,
     C. Bannwarth and S. Grimme, J. Chem. Phys., 2019, 150, 154122.
     DOI: 10.1063/1.5090222
   * E. Caldeweyher, J.-M. Mewes, S. Ehlert and S. Grimme, Phys. Chem. Chem. Phys.
     2020, 22, 8499-8512. DOI: 10.1039/D0CP00502A
   
   for sTDA-xTB:
   * S. Grimme and C. Bannwarth, J. Chem. Phys., 2016, 145, 054103.
     DOI: 10.1063/1.4959605
   
   in the mass-spec context:
   * V. Asgeirsson, C. Bauer and S. Grimme, Chem. Sci., 2017, 8, 4879.
     DOI: 10.1039/c7sc00601b
   * J. Koopman and S. Grimme, ACS Omega 2019, 4, 12, 15120-15133.
     DOI: 10.1021/acsomega.9b02011
   
   for metadynamics refer to:
   * S. Grimme, J. Chem. Theory Comput., 2019, 155, 2847-2862
     DOI: 10.1021/acs.jctc.9b00143
   
   for SPH calculations refer to:
   * S. Spicher and S. Grimme, J. Chem. Theory Comput., 2021, 17, 1701-1714
     DOI: 10.1021/acs.jctc.0c01306
   
   with help from (in alphabetical order)
   P. Atkinson, C. Bannwarth, F. Bohle, G. Brandenburg, E. Caldeweyher
   M. Checinski, S. Dohm, S. Ehlert, S. Ehrlich, I. Gerasimov, C. Hölzer
   A. Katbashev, J. Koopman, C. Lavigne, S. Lehtola, F. März, M. Müller,
   F. Musil, H. Neugebauer, J. Pisarek, C. Plett, P. Pracht, F. Pultar,
   J. Seibert, P. Shushkov, S. Spicher, M. Stahn, M. Steiner, T. Strunk,
   J. Stückrath, T. Rose, and J. Unsleber
   
 * started run on 2026/04/17 at 12:14:16.956     

           -------------------------------------------------
          |                Calculation Setup                |
           -------------------------------------------------

          program call               : /usr/bin/xtb random_d1.90_010_m1_XTB.xyz --grad -c 0 -u 0 -P 1 --namespace random_d1.90_010_m1 --input random_d1.90_010_m1_XTB.input.tmp --acc 0.200000
          calculation namespace      : random_d1.90_010_m1
          coordinate file            : random_d1.90_010_m1_XTB.xyz
          omp threads                :                     1

   ID    Z sym.   atoms
    1    5 B      1-12

molecular fragmentation (1/2 indicates fragments):
122222222221
# atoms in fragment 1/2:     2    10
 fragment masses (1/2) :       21.62      108.11
CMA distance (Bohr)    :   3.225
constraining FC (au)   :  0.0500

           -------------------------------------------------
          |                 G F N 2 - x T B                 |
           -------------------------------------------------

        Reference                      10.1021/acs.jctc.8b01176
      * Hamiltonian:
        H0-scaling (s, p, d)           1.850000    2.230000    2.230000
        zeta-weighting                 0.500000
      * Dispersion:
        s8                             2.700000
        a1                             0.520000
        a2                             5.000000
        s9                             5.000000
      * Repulsion:
        kExp                           1.500000    1.000000
        rExp                           1.000000
      * Coulomb:
        alpha                          2.000000
        third order                    shell-resolved
        anisotropic                    true
        a3                             3.000000
        a5                             4.000000
        cn-shift                       1.200000
        cn-exp                         4.000000
        max-rad                        5.000000


          ...................................................
          :                      SETUP                      :
          :.................................................:
          :  # basis functions                  48          :
          :  # atomic orbitals                  48          :
          :  # shells                           24          :
          :  # electrons                        36          :
          :  max. iterations                   250          :
          :  Hamiltonian                  GFN2-xTB          :
          :  restarted?                      false          :
          :  GBSA solvation                  false          :
          :  PC potential                    false          :
          :  electronic temp.          300.0000000     K    :
          :  accuracy                    0.2000000          :
          :  -> integral cutoff          0.3198970E+02      :
          :  -> integral neglect         0.2000000E-08      :
          :  -> SCF convergence          0.2000000E-06 Eh   :
          :  -> wf. convergence          0.2000000E-04 e    :
          :  Broyden damping             0.4000000          :
          ...................................................

 iter      E             dE          RMSdq      gap      omega  full diag
   1    -12.7537493 -0.127537E+02  0.188E+01    0.10       0.0  T
   2      4.7016858  0.174554E+02  0.243E+01    0.38       1.0  T
   3     10.2165711  0.551489E+01  0.273E+01    0.24       1.0  T
   4      0.9468669 -0.926970E+01  0.223E+01    0.47       1.0  T
   5     -8.4340549 -0.938092E+01  0.136E+01    0.09       1.0  T
   6     12.5741996  0.210083E+02  0.234E+01    0.57       1.0  T
   7     -5.0684542 -0.176427E+02  0.156E+01    0.16       1.0  T
   8    -10.9113940 -0.584294E+01  0.112E+01    0.15       1.0  T
   9    -11.0405761 -0.129182E+00  0.108E+01    0.11       1.0  T
  10    -11.5992285 -0.558652E+00  0.961E+00    0.06       1.0  T
  11    -11.6634891 -0.642606E-01  0.947E+00    0.21       1.0  T
  12    -11.8724589 -0.208970E+00  0.896E+00    0.17       1.0  T
  13    -11.9731643 -0.100705E+00  0.863E+00    0.15       1.0  T
  14    -11.7723342  0.200830E+00  0.875E+00    0.16       1.0  T
  15    -11.9509358 -0.178602E+00  0.821E+00    0.15       1.0  T
  16    -12.1607862 -0.209850E+00  0.735E+00    0.11       1.0  T
  17    -12.3141495 -0.153363E+00  0.683E+00    0.09       1.0  T
  18    -12.4058517 -0.917023E-01  0.610E+00    0.11       1.0  T
  19    -12.4665549 -0.607032E-01  0.588E+00    0.09       1.0  T
  20    -12.5260940 -0.595391E-01  0.561E+00    0.11       1.0  T
  21    -12.5729642 -0.468702E-01  0.545E+00    0.10       1.0  T
  22    -12.5709201  0.204408E-02  0.546E+00    0.10       1.0  T
  23    -12.6580643 -0.871442E-01  0.502E+00    0.09       1.0  T
  24    -12.7710796 -0.113015E+00  0.442E+00    0.11       1.0  T
  25    -12.7825132 -0.114336E-01  0.438E+00    0.11       1.0  T
  26    -12.8398425 -0.573293E-01  0.428E+00    0.11       1.0  T
  27    -12.9603437 -0.120501E+00  0.412E+00    0.12       1.0  T
  28    -12.9751961 -0.148525E-01  0.427E+00    0.14       1.0  T
  29    -12.9539263  0.212699E-01  0.445E+00    0.14       1.0  T
  30    -12.9497543  0.417201E-02  0.448E+00    0.14       1.0  T
  31    -12.9655327 -0.157785E-01  0.441E+00    0.14       1.0  T
  32    -12.9516551  0.138777E-01  0.444E+00    0.13       1.0  T
  33    -12.9541204 -0.246533E-02  0.435E+00    0.12       1.0  T
  34    -12.9534064  0.714028E-03  0.439E+00    0.12       1.0  T
  35    -12.9847485 -0.313421E-01  0.358E+00    0.10       1.0  T
  36    -12.9315943  0.531542E-01  0.362E+00    0.08       1.0  T
  37    -12.9953277 -0.637334E-01  0.314E+00    0.09       1.0  T
  38    -12.9906136  0.471413E-02  0.315E+00    0.08       1.0  T
  39    -13.0135846 -0.229710E-01  0.286E+00    0.09       1.0  T
  40    -13.0619565 -0.483719E-01  0.196E+00    0.12       1.0  T
  41    -13.0570456  0.491096E-02  0.204E+00    0.13       1.0  T
  42    -13.0571420 -0.964258E-04  0.203E+00    0.14       1.0  T
  43    -13.0677613 -0.106193E-01  0.181E+00    0.12       1.0  T
  44    -13.0721936 -0.443238E-02  0.168E+00    0.09       1.0  T
  45    -13.0714449  0.748733E-03  0.166E+00    0.09       1.0  T
  46    -13.0866569 -0.152120E-01  0.104E+00    0.09       1.0  T
  47    -13.0871988 -0.541859E-03  0.901E-01    0.09       1.0  T
  48    -13.0905497 -0.335092E-02  0.650E-01    0.09       1.0  T
  49    -13.0794630  0.110866E-01  0.986E-01    0.08       1.0  T
  50    -13.0884338 -0.897072E-02  0.689E-01    0.09       1.0  T
  51    -13.0959185 -0.748474E-02  0.267E-01    0.10       1.0  T
  52    -13.0961568 -0.238312E-03  0.230E-01    0.10       1.0  T
  53    -13.0961382  0.186652E-04  0.235E-01    0.11       1.0  T
  54    -13.0958786  0.259605E-03  0.233E-01    0.10       1.0  T
  55    -13.0961268 -0.248261E-03  0.192E-01    0.10       1.0  T
  56    -13.0962500 -0.123203E-03  0.152E-01    0.11       1.0  T
  57    -13.0962422  0.781419E-05  0.177E-01    0.10       1.0  T
  58    -13.0961631  0.790677E-04  0.193E-01    0.10       1.0  T
  59    -13.0961996 -0.364470E-04  0.169E-01    0.10       1.0  T
  60    -13.0963330 -0.133389E-03  0.124E-01    0.10       1.0  T
  61    -13.0963932 -0.602386E-04  0.103E-01    0.10       1.0  T
  62    -13.0964254 -0.322127E-04  0.814E-02    0.10       1.0  T
  63    -13.0964421 -0.166440E-04  0.654E-02    0.10       1.0  T
  64    -13.0964516 -0.957929E-05  0.545E-02    0.10       1.0  T
  65    -13.0964655 -0.138813E-04  0.302E-02    0.10       1.0  T
  66    -13.0964656 -0.809436E-07  0.270E-02    0.10       1.1  T
  67    -13.0964692 -0.357660E-05  0.202E-02    0.10       1.4  T
  68    -13.0964711 -0.186509E-05  0.134E-02    0.10       2.2  T
  69    -13.0964713 -0.282628E-06  0.102E-02    0.10       2.8  T
  70    -13.0964711  0.239612E-06  0.984E-03    0.10       2.9  T
  71    -13.0964711 -0.543372E-07  0.930E-03    0.10       3.1  T
  72    -13.0964717 -0.540816E-06  0.681E-03    0.10       4.2  T
  73    -13.0964719 -0.170664E-06  0.579E-03    0.10       5.0  T
  74    -13.0964722 -0.293731E-06  0.324E-03    0.10       8.9  T
  75    -13.0964723 -0.129650E-06  0.152E-03    0.10      19.0  T
  76    -13.0964723 -0.162722E-07  0.108E-03    0.10      26.8  T
  77    -13.0964723  0.360789E-09  0.853E-04    0.10      33.8  T
  78    -13.0964723 -0.124423E-08  0.682E-04    0.10      42.3  T
  79    -13.0964723 -0.146461E-08  0.517E-04    0.10      55.8  T
  80    -13.0964723 -0.785464E-09  0.349E-04    0.10      82.7  T
  81    -13.0964723 -0.187358E-09  0.282E-04    0.10     102.2  T
  82    -13.0964723 -0.114520E-09  0.219E-04    0.10     131.8  T
  83    -13.0964723 -0.134927E-09  0.157E-04    0.10     184.2  T
  84    -13.0964723 -0.151013E-09  0.977E-05    0.10     295.4  T

   *** convergence criteria satisfied after 84 iterations ***

         #    Occupation            Energy/Eh            Energy/eV
      -------------------------------------------------------------
         1        2.0000           -0.4133882             -11.2489
       ...           ...                  ...                  ...
        12        2.0000           -0.2839743              -7.7273
        13        2.0000           -0.2819381              -7.6719
        14        2.0000           -0.2748909              -7.4802
        15        2.0000           -0.2720544              -7.4030
        16        2.0000           -0.2715788              -7.3900
        17        1.9864           -0.2581256              -7.0240
        18        1.7487           -0.2552334              -6.9453 (HOMO)
        19        0.2191           -0.2513997              -6.8409 (LUMO)
        20        0.0457           -0.2498227              -6.7980
        21        0.0001           -0.2442689              -6.6469
        22                         -0.2360469              -6.4232
        23                         -0.2316262              -6.3029
       ...                                ...                  ...
        48                          1.8245024              49.6472
      -------------------------------------------------------------
                  HL-Gap            0.0038338 Eh            0.1043 eV
             Fermi-level           -0.2533905 Eh           -6.8951 eV

 SCC (total)                   0 d,  0 h,  0 min,  0.137 sec
 SCC setup                      ...        0 min,  0.000 sec (  0.111%)
 Dispersion                     ...        0 min,  0.000 sec (  0.067%)
 classical contributions        ...        0 min,  0.000 sec (  0.024%)
 integral evaluation            ...        0 min,  0.003 sec (  1.976%)
 iterations                     ...        0 min,  0.126 sec ( 92.262%)
 molecular gradient             ...        0 min,  0.007 sec (  5.346%)
 printout                       ...        0 min,  0.000 sec (  0.198%)

         :::::::::::::::::::::::::::::::::::::::::::::::::::::
         ::                     SUMMARY                     ::
         :::::::::::::::::::::::::::::::::::::::::::::::::::::
         :: total energy             -12.977149297314 Eh    ::
         :: gradient norm              0.342564020163 Eh/a0 ::
         :: HOMO-LUMO gap              0.104321923801 eV    ::
         ::.................................................::
         :: SCC energy               -13.096472304258 Eh    ::
         :: -> isotropic ES            0.047921726198 Eh    ::
         :: -> anisotropic ES         -0.000251103163 Eh    ::
         :: -> anisotropic XC         -0.036836179419 Eh    ::
         :: -> dispersion             -0.027954824493 Eh    ::
         :: repulsion energy           0.119085860839 Eh    ::
         :: add. restraining           0.000000000000 Eh    ::
         :: total charge              -0.000000000277 e     ::
         :::::::::::::::::::::::::::::::::::::::::::::::::::::


Property printout bound to 'properties.out'

           -------------------------------------------------
          | TOTAL ENERGY              -12.977149297314 Eh   |
          | GRADIENT NORM               0.342564020163 Eh/α |
          | HOMO-LUMO GAP               0.104321923801 eV   |
           -------------------------------------------------

------------------------------------------------------------------------
 * finished run on 2026/04/17 at 12:14:17.107     
------------------------------------------------------------------------
 total:
 * wall-time:     0 d,  0 h,  0 min,  0.151 sec
 *  cpu-time:     0 d,  0 h,  0 min,  0.151 sec
 * ratio c/w:     0.997 speedup
 SCF:
 * wall-time:     0 d,  0 h,  0 min,  0.137 sec
 *  cpu-time:     0 d,  0 h,  0 min,  0.137 sec
 * ratio c/w:     0.998 speedup


-------------------------   --------------------
FINAL SINGLE POINT ENERGY       -12.977149297310
-------------------------   --------------------


-------------
DIPOLE MOMENT
-------------
                                X             Y             Z
Total Dipole Moment    :     -0.64400      -0.43600      -0.20000
                        -----------------------------------------
Magnitude (a.u.)       :      0.80301
Magnitude (Debye)      :      2.04110


------------------
CARTESIAN GRADIENT
------------------

   1   B   :   -0.000029704   -0.020754042   -0.016391514
   2   B   :    0.050419940    0.011547936    0.019245041
   3   B   :    0.018396849   -0.008451707   -0.078055413
   4   B   :    0.036302972   -0.082229583   -0.019544483
   5   B   :   -0.102287546   -0.110257908    0.075935334
   6   B   :   -0.023232490    0.053367586    0.044141919
   7   B   :    0.039051207    0.001264078   -0.045864981
   8   B   :    0.011744846    0.030364530    0.082377823
   9   B   :   -0.065987065    0.045697857   -0.024283934
  10   B   :    0.138764619    0.070547466   -0.068236282
  11   B   :   -0.046994367   -0.061914840   -0.022350253
  12   B   :   -0.056149261    0.070818627    0.053026743

Difference to translation invariance:
           :    0.0000000000   -0.0000000000    0.0000000000

Difference to rotation invariance:
           :    0.0000000117   -0.0000000554    0.0000000447

Norm of the Cartesian gradient     ...    0.3425640202
RMS gradient                       ...    0.0570940034
MAX gradient                       ...    0.1387646187
------------------------------------------------------------------------------
                         ORCA GEOMETRY RELAXATION STEP
------------------------------------------------------------------------------

Reading the OPT-File                    .... done
Getting information on internals        .... done
Copying old internal coords+grads       .... done
Making the new internal coordinates     .... (2022 redundants) done
Validating the new internal coordinates .... (2022 redundants) done
Calculating the B-matrix                .... done
Calculating the G,G- and P matrices     .... done
Transforming gradient to internals      .... done
Projecting the internal gradient        .... done
Number of atoms                         ....  12
Number of internal coordinates          .... 166
Current Energy                          ....   -12.977149297 Eh
Current gradient norm                   ....     0.342564020 Eh/bohr
Maximum allowed component of the step   ....  0.300
Current trust radius                    ....  0.300
Evaluating the initial hessian          ....  (Almloef) done
Projecting the Hessian                  .... done
Forming the augmented Hessian           .... done
Diagonalizing the augmented Hessian     .... done
Last element of RFO vector              ....  0.761592761
Lowest eigenvalues of augmented Hessian:
 -0.166887511  0.013733487  0.015195564  0.016768510  0.017794716
Length of the computed step             ....  0.850921839
Warning: the length of the step is outside the trust region - taking restricted step instead
The input lambda is                     ....     0.011266
   iter:   5  x=    0.002660  g=40782.325483 f(x)=   152.365042
   iter:  10  x=   -0.103365  g=   73.348922 f(x)=     3.198819
   iter:  15  x=   -0.560996  g=    0.416344 f(x)=     0.028683
   iter:  20  x=   -0.577371  g=    0.270603 f(x)=    -0.000000
The output lambda is                    ....    -0.577371 (20 iterations)
The final length of the internal step   ....  0.300000000
Converting the step to Cartesian space:
 Initial RMS(Int)=    0.0232845158
Transforming coordinates:
 Iter   0:  RMS(Cart)=    0.0481450743 RMS(Int)=    0.0232592970
done
Storing new coordinates                 .... done

                                .--------------------.
          ----------------------|Geometry convergence|-------------------------
          Item                value                   Tolerance       Converged
          ---------------------------------------------------------------------
          RMS gradient        0.0175341673            0.0000300000      NO
          MAX gradient        0.1193286660            0.0001000000      NO
          RMS step            0.0232845158            0.0006000000      NO
          MAX step            0.0993791423            0.0010000000      NO
          -------------------------------------------------------------------------
          ........................................................
          Max(Bonds)      0.0526      Max(Angles)    1.61
          Max(Dihed)        1.81      Max(Improp)    0.00
          ---------------------------------------------------------------------

The optimization has not yet converged - more geometry cycles are needed


    ---------------------------------------------------------------------------
                         Redundant Internal Coordinates
                            (Angstroem and degrees)

        Definition                    Value    dE/dq     Step     New-Value
    ----------------------------------------------------------------------------
     1. B(B   4,B   0)                3.1276 -0.005951 -0.0068    3.1208   
     2. B(B   4,B   1)                3.0831  0.017316 -0.0143    3.0688   
     3. B(B   5,B   4)                2.7529  0.021270 -0.0142    2.7387   
     4. B(B   5,B   3)                2.2727  0.037073 -0.0328    2.2398   
     5. B(B   5,B   2)                1.5107  0.006508 -0.0038    1.5068   
     6. B(B   6,B   5)                2.2400  0.059751 -0.0515    2.1886   
     7. B(B   7,B   0)                2.3535  0.038161 -0.0337    2.3198   
     8. B(B   8,B   3)                2.3414  0.058261 -0.0496    2.2917   
     9. B(B   8,B   0)                2.9997  0.033194 -0.0285    2.9712   
    10. B(B   8,B   5)                2.9758  0.011689 -0.0124    2.9634   
    11. B(B   8,B   2)                2.8907  0.008181 -0.0063    2.8844   
    12. B(B   9,B   0)                2.5960  0.032043 -0.0199    2.5761   
    13. B(B   9,B   5)                3.0466  0.000128 -0.0107    3.0359   
    14. B(B   9,B   4)                1.3188 -0.119329  0.0459    1.3647   
    15. B(B  10,B   0)                2.6270  0.044084 -0.0397    2.5873   
    16. B(B  10,B   7)                2.1070  0.053434 -0.0442    2.0628   
    17. B(B  11,B   1)                2.5246  0.046737 -0.0421    2.4825   
    18. B(B  11,B   0)                1.9619  0.046185 -0.0373    1.9246   
    19. B(B  11,B   2)                1.9977  0.066881 -0.0526    1.9451   
    20. A(B   8,B   0,B   9)          116.21 -0.001329    0.19    116.40   
    21. A(B   7,B   0,B  11)          108.03 -0.004997    0.42    108.44   
    22. A(B   8,B   0,B  10)           63.53  0.015417   -1.44     62.09   
    23. A(B   4,B   0,B  11)           99.72  0.006779   -0.22     99.50   
    24. A(B   4,B   0,B   8)          115.81 -0.005736    0.56    116.37   
    25. A(B   4,B   0,B   7)          121.48 -0.010178    0.60    122.08   
    26. A(B   4,B   0,B  10)          126.33 -0.010272    0.54    126.87   
    27. A(B   7,B   0,B   8)          108.71  0.018006   -1.61    107.10   
    28. A(B  10,B   0,B  11)          133.94  0.003285   -0.30    133.64   
    29. A(B   7,B   0,B   9)          101.50  0.010746   -0.47    101.03   
    30. A(B   4,B   0,B   9)           24.45 -0.022795    1.03     25.49   
    31. A(B   9,B   0,B  11)          121.92 -0.013635    0.69    122.60   
    32. A(B   9,B   0,B  10)          103.30  0.010404   -0.35    102.95   
    33. A(B   8,B   0,B  11)          100.03 -0.005201    0.49    100.52   
    34. A(B   7,B   0,B  10)           49.68  0.004373   -0.33     49.35   
    35. A(B   4,B   1,B  11)           89.35  0.000180    0.07     89.42   
    36. A(B   5,B   2,B   8)           78.22  0.000949   -0.23     77.99   
    37. A(B   5,B   2,B  11)          106.36 -0.000993    0.02    106.38   
    38. A(B   8,B   2,B  11)          102.76 -0.003275    0.21    102.97   
    39. A(B   5,B   3,B   8)           80.31 -0.015030    1.33     81.64   
    40. A(B   1,B   4,B   9)          106.44  0.008537   -0.62    105.81   
    41. A(B   0,B   4,B   5)           47.12  0.009274   -0.72     46.39   
    42. A(B   0,B   4,B   1)           65.71  0.005892   -0.61     65.10   
    43. A(B   0,B   4,B   9)           54.58  0.006029   -0.22     54.35   
    44. A(B   1,B   4,B   5)           76.98  0.005065   -0.57     76.42   
    45. A(B   5,B   4,B   9)           89.72  0.014244   -0.84     88.87   
    46. A(B   2,B   5,B   6)          118.76 -0.006394    0.51    119.27   
    47. A(B   3,B   5,B   8)           50.86  0.010470   -0.92     49.94   
    48. A(B   4,B   5,B   9)           25.65 -0.022969    1.05     26.70   
    49. A(B   6,B   5,B   8)          126.77 -0.000090   -0.01    126.76   
    50. A(B   3,B   5,B   6)           93.62 -0.004969    0.39     94.02   
    51. A(B   3,B   5,B   9)           78.25  0.002842    0.10     78.34   
    52. A(B   6,B   5,B   9)          104.57 -0.005828    0.13    104.70   
    53. A(B   2,B   5,B   9)          128.33  0.007203   -0.48    127.85   
    54. A(B   4,B   5,B   8)          129.93 -0.010763    0.48    130.41   
    55. A(B   3,B   5,B   4)           96.24 -0.015161    0.99     97.23   
    56. A(B   2,B   5,B   3)          122.40  0.008745   -0.68    121.72   
    57. A(B   4,B   5,B   6)           85.40  0.010992   -0.64     84.76   
    58. A(B   2,B   5,B   4)          129.96  0.004684   -0.36    129.59   
    59. A(B   2,B   5,B   8)           71.98 -0.001177    0.20     72.18   
    60. A(B   8,B   5,B   9)          104.30  0.012147   -0.57    103.74   
    61. A(B   0,B   7,B  10)           71.93 -0.002539    0.17     72.09   
    62. A(B   2,B   8,B   5)           29.80  0.000228    0.03     29.83   
    63. A(B   3,B   8,B   5)           48.83  0.004560   -0.41     48.42   
    64. A(B   2,B   8,B   3)           78.44  0.004584   -0.37     78.07   
    65. A(B   0,B   8,B   5)           46.84  0.005980   -0.51     46.33   
    66. A(B   0,B   8,B   2)           50.84  0.008693   -0.72     50.12   
    67. A(B   0,B   8,B   3)           71.26  0.004119   -0.36     70.90   
    68. A(B   0,B   9,B   4)          100.97  0.016765   -0.81    100.16   
    69. A(B   0,B   9,B   5)           48.99  0.008608   -0.68     48.31   
    70. A(B   4,B   9,B   5)           64.63  0.008726   -0.21     64.42   
    71. A(B   0,B  10,B   7)           58.39 -0.001834    0.16     58.56   
    72. A(B   1,B  11,B   2)          103.28 -0.007157    0.67    103.95   
    73. A(B   0,B  11,B   1)           96.56 -0.012313    0.79     97.35   
    74. A(B   0,B  11,B   2)           79.43 -0.003523    0.32     79.75   
    75. D(B   9,B   4,B   0,B  11)    156.80 -0.000094   -0.10    156.70   
    76. D(B   5,B   4,B   0,B  10)    108.73  0.013053   -1.00    107.72   
    77. D(B   9,B   4,B   0,B   8)    -96.99 -0.004182    0.52    -96.47   
    78. D(B   0,B   4,B   1,B  11)    -16.84 -0.001180    0.14    -16.69   
    79. D(B   5,B   4,B   0,B   8)     33.73  0.000095    0.32     34.05   
    80. D(B   5,B   4,B   1,B  11)     31.71  0.007545   -0.48     31.23   
    81. D(B   9,B   4,B   1,B  11)    -54.07 -0.007158    0.44    -53.63   
    82. D(B   9,B   4,B   0,B   7)     38.57  0.006312   -0.78     37.79   
    83. D(B   5,B   4,B   0,B   7)    169.29  0.010589   -0.97    168.32   
    84. D(B   5,B   4,B   0,B  11)    -72.48  0.004183   -0.30    -72.78   
    85. D(B   9,B   4,B   0,B  10)    -21.99  0.008775   -0.81    -22.80   
    86. D(B   3,B   5,B   4,B   9)    -45.49 -0.004427    0.37    -45.12   
    87. D(B   6,B   5,B   4,B   0)   -176.78 -0.002122    0.11   -176.68   
    88. D(B   3,B   5,B   4,B   1)   -152.44 -0.009366    0.76   -151.68   
    89. D(B   2,B   5,B   4,B   9)     97.14 -0.005576    0.18     97.33   
    90. D(B   2,B   5,B   4,B   1)     -9.81 -0.010515    0.58     -9.23   
    91. D(B   6,B   5,B   4,B   9)   -138.64 -0.001700    0.11   -138.53   
    92. D(B   4,B   5,B   3,B   8)    138.03 -0.007163    0.31    138.34   
    93. D(B   3,B   5,B   2,B  11)    106.96  0.002180   -0.25    106.71   
    94. D(B   6,B   5,B   3,B   8)   -136.21  0.002551   -0.24   -136.45   
    95. D(B   9,B   5,B   3,B   8)    119.65  0.007480   -0.29    119.36   
    96. D(B   6,B   5,B   2,B  11)   -137.34 -0.003450    0.22   -137.12   
    97. D(B   6,B   5,B   2,B   8)    122.65 -0.000404    0.05    122.71   
    98. D(B   2,B   5,B   4,B   0)     59.00 -0.005998    0.18     59.18   
    99. D(B   2,B   5,B   3,B   8)     -8.53 -0.005096    0.39     -8.15   
   100. D(B   4,B   5,B   2,B  11)    -27.43  0.011078   -0.55    -27.98   
   101. D(B   4,B   5,B   2,B   8)   -127.44  0.014125   -0.71   -128.16   
   102. D(B   8,B   5,B   2,B  11)    100.01 -0.003046    0.16    100.17   
   103. D(B   6,B   5,B   4,B   1)    114.41 -0.006639    0.51    114.92   
   104. D(B   3,B   5,B   2,B   8)      6.95  0.005226   -0.41      6.54   
   105. D(B  10,B   7,B   0,B  11)    132.91  0.007226   -0.65    132.26   
   106. D(B  10,B   7,B   0,B   4)   -113.04  0.005764   -0.23   -113.27   
   107. D(B  10,B   7,B   0,B   9)    -97.77 -0.005163    0.10    -97.67   
   108. D(B  10,B   7,B   0,B   8)     25.24  0.007394   -0.68     24.56   
   109. D(B   2,B   8,B   5,B   9)    126.16  0.004873   -0.37    125.79   
   110. D(B   2,B   8,B   5,B   4)    127.47  0.002762   -0.21    127.27   
   111. D(B   2,B   8,B   5,B   6)   -112.86  0.008776   -0.78   -113.64   
   112. D(B   3,B   8,B   5,B   9)    -61.41  0.001046   -0.08    -61.48   
   113. D(B   3,B   8,B   5,B   4)    -60.10 -0.001065    0.09    -60.01   
   114. D(B   3,B   8,B   5,B   6)     59.57  0.004949   -0.48     59.08   
   115. D(B   3,B   8,B   5,B   2)    172.43 -0.003827    0.29    172.72   
   116. D(B   0,B   8,B   3,B   5)    -48.48 -0.006062    0.52    -47.96   
   117. D(B   2,B   8,B   3,B   5)      3.83  0.001893   -0.14      3.69   
   118. D(B   0,B   8,B   2,B  11)    -35.02 -0.001159    0.13    -34.88   
   119. D(B   0,B   8,B   2,B   5)     69.33 -0.001503    0.08     69.41   
   120. D(B   3,B   8,B   2,B  11)   -110.16 -0.002897    0.31   -109.85   
   121. D(B   3,B   8,B   2,B   5)     -5.81 -0.003241    0.25     -5.56   
   122. D(B   2,B   8,B   0,B  10)    169.71  0.007563   -0.66    169.05   
   123. D(B   2,B   8,B   0,B   7)    148.42  0.002994   -0.27    148.15   
   124. D(B   2,B   8,B   0,B  11)     35.36  0.004779   -0.40     34.95   
   125. D(B   5,B   8,B   2,B  11)   -104.35  0.000344    0.05   -104.30   
   126. D(B   3,B   8,B   0,B   4)     19.54  0.001453   -0.56     18.98   
   127. D(B   3,B   8,B   0,B   9)     -7.72  0.027878   -1.81     -9.53   
   128. D(B   2,B   8,B   5,B   3)   -172.43  0.003827   -0.29   -172.72   
   129. D(B   3,B   8,B   0,B   7)   -121.38  0.002776   -0.23   -121.61   
   130. D(B   3,B   8,B   0,B  11)    125.56  0.004561   -0.36    125.20   
   131. D(B   3,B   8,B   0,B  10)   -100.09  0.007345   -0.62   -100.70   
   132. D(B   5,B   9,B   0,B  11)    -68.90  0.003506   -0.35    -69.26   
   133. D(B   4,B   9,B   0,B  10)    161.94  0.003820   -0.50    161.44   
   134. D(B   4,B   9,B   0,B   7)   -147.14  0.010551   -0.93   -148.07   
   135. D(B   4,B   9,B   0,B   8)     95.15 -0.017836    1.25     96.40   
   136. D(B   5,B   9,B   0,B   8)     53.47 -0.019183    1.26     54.73   
   137. D(B   4,B   9,B   0,B  11)    -27.22  0.004853   -0.36    -27.59   
   138. D(B   0,B   9,B   5,B   6)    176.62  0.003759   -0.15    176.47   
   139. D(B   0,B   9,B   5,B   2)     29.56  0.015915   -0.66     28.91   
   140. D(B   4,B   9,B   5,B   8)    177.68  0.001438   -0.19    177.49   
   141. D(B   4,B   9,B   5,B   3)    133.61 -0.005688    0.52    134.12   
   142. D(B   4,B   9,B   5,B   6)     42.88 -0.002379    0.10     42.99   
   143. D(B   4,B   9,B   5,B   2)   -104.17  0.009778   -0.40   -104.58   
   144. D(B   5,B   9,B   4,B   0)     33.74  0.003247   -0.34     33.40   
   145. D(B   5,B   9,B   4,B   1)     76.33  0.008981   -0.80     75.53   
   146. D(B   0,B   9,B   4,B   1)     42.60  0.005734   -0.47     42.13   
   147. D(B   0,B   9,B   4,B   5)    -33.74 -0.003247    0.34    -33.40   
   148. D(B   0,B   9,B   5,B   3)    -92.66  0.000450    0.26    -92.39   
   149. D(B   5,B   9,B   0,B   7)    171.18  0.009203   -0.92    170.26   
   150. D(B   7,B  10,B   0,B   4)    103.07 -0.004871    0.29    103.36   
   151. D(B   7,B  10,B   0,B   9)     93.90  0.006326   -0.39     93.52   
   152. D(B   7,B  10,B   0,B   8)   -153.18  0.000968   -0.09   -153.27   
   153. D(B   7,B  10,B   0,B  11)    -75.28  0.007330   -0.69    -75.97   
   154. D(B   1,B  11,B   2,B   8)    138.11 -0.009719    0.50    138.61   
   155. D(B   0,B  11,B   2,B   8)     43.79  0.002675   -0.28     43.51   
   156. D(B   0,B  11,B   2,B   5)    -37.49  0.002713   -0.10    -37.59   
   157. D(B   2,B  11,B   1,B   4)    -55.58  0.003006   -0.41    -55.99   
   158. D(B   0,B  11,B   1,B   4)     25.06 -0.003892    0.14     25.21   
   159. D(B   1,B  11,B   0,B   7)    102.73 -0.008885    0.70    103.44   
   160. D(B   1,B  11,B   0,B   8)   -143.68  0.007066   -0.73   -144.41   
   161. D(B   2,B  11,B   0,B   4)     77.28 -0.004043    0.52     77.80   
   162. D(B   2,B  11,B   0,B   9)     88.35 -0.015475    1.09     89.45   
   163. D(B   2,B  11,B   0,B  10)   -104.07 -0.014219    1.33   -102.75   
   164. D(B   1,B  11,B   2,B   5)     56.83 -0.009682    0.68     57.51   
   165. D(B   2,B  11,B   0,B   7)   -154.92 -0.014415    1.28   -153.64   
   166. D(B   2,B  11,B   0,B   8)    -41.34  0.001535   -0.15    -41.48   
    ----------------------------------------------------------------------------

Geometry step timings:
Preparation and reading OPT file:      0.000 s ( 0.402 %)
Internal coordinates            :      0.000 s ( 1.742 %)
B/P matrices and projection     :      0.003 s (21.907 %)
Hessian update/contruction      :      0.002 s (15.587 %)
Making the step                 :      0.006 s (46.667 %)
Converting the step to Cartesian:      0.000 s ( 1.891 %)
Storing new data                :      0.000 s ( 0.496 %)
Checking convergence            :      0.000 s ( 0.646 %)
Final printing                  :      0.001 s (10.654 %)
Total time                      :      0.013 s

Time for energy+gradient        :      0.163 s
Time for complete geometry iter :      0.177 s

         *************************************************************
         *                GEOMETRY OPTIMIZATION CYCLE   2            *
         *************************************************************
---------------------------------
CARTESIAN COORDINATES (ANGSTROEM)
---------------------------------
  B    -0.566014    0.080583    0.823844
  B     1.987440    2.103423    1.515512
  B    -0.268210    1.597338   -1.117179
  B    -0.489142   -1.622084   -1.767767
  B     2.420546   -0.731870    0.424326
  B     0.508483    0.311620   -1.235710
  B     2.040654    0.126028   -2.787439
  B    -1.757409   -0.502312    2.727049
  B    -2.370119   -0.340555   -1.499083
  B     1.456781   -1.504533    1.004385
  B    -2.580790   -1.513732    1.128831
  B    -0.382222    1.996093    0.783232

----------------------------
CARTESIAN COORDINATES (A.U.)
----------------------------
  NO LB    ZA    FRAG    MASS        X           Y           Z
   0 B   5.0000    0    10.810   -1.069611    0.152281    1.556839
   1 B   5.0000    0    10.810    3.755718    3.974893    2.863903
   2 B   5.0000    0    10.810   -0.506844    3.018532   -2.111163
   3 B   5.0000    0    10.810   -0.924344   -3.065295   -3.340596
   4 B   5.0000    0    10.810    4.574170   -1.383033    0.801860
   5 B   5.0000    0    10.810    0.960893    0.588876   -2.335153
   6 B   5.0000    0    10.810    3.856278    0.238158   -5.267497
   7 B   5.0000    0    10.810   -3.321022   -0.949231    5.153376
   8 B   5.0000    0    10.810   -4.478876   -0.643555   -2.832856
   9 B   5.0000    0    10.810    2.752917   -2.843155    1.898012
  10 B   5.0000    0    10.810   -4.876986   -2.860539    2.133181
  11 B   5.0000    0    10.810   -0.722295    3.772069    1.480094

      -----------------------------------------------------------      
     |                   =====================                   |     
     |                           x T B                           |     
     |                   =====================                   |     
     |                         S. Grimme                         |     
     |          Mulliken Center for Theoretical Chemistry        |     
     |                    University of Bonn                     |     
      -----------------------------------------------------------      

   * xtb version 6.6.1 (unknown) compiled by 'builduser@buildhost' on 2023-08-07

   xtb is free software: you can redistribute it and/or modify it under
   the terms of the GNU Lesser General Public License as published by
   the Free Software Foundation, either version 3 of the License, or
   (at your option) any later version.
   
   xtb is distributed in the hope that it will be useful,
   but WITHOUT ANY WARRANTY; without even the implied warranty of
   MERCHANTABILITY or FITNESS FOR A PARTICULAR PURPOSE.  See the
   GNU Lesser General Public License for more details.
   
   Cite this work as:
   * C. Bannwarth, E. Caldeweyher, S. Ehlert, A. Hansen, P. Pracht,
     J. Seibert, S. Spicher, S. Grimme, WIREs Comput. Mol. Sci., 2020, 11,
     e01493. DOI: 10.1002/wcms.1493
   
   for GFN2-xTB:
   * C. Bannwarth, S. Ehlert and S. Grimme., J. Chem. Theory Comput., 2019,
     15, 1652-1671. DOI: 10.1021/acs.jctc.8b01176
   for GFN1-xTB:
   * S. Grimme, C. Bannwarth, P. Shushkov, J. Chem. Theory Comput., 2017,
     13, 1989-2009. DOI: 10.1021/acs.jctc.7b00118
   for GFN0-xTB:
   * P. Pracht, E. Caldeweyher, S. Ehlert, S. Grimme, ChemRxiv, 2019, preprint.
     DOI: 10.26434/chemrxiv.8326202.v1
   for GFN-FF:
   * S. Spicher and S. Grimme, Angew. Chem. Int. Ed., 2020, 59, 15665-15673.
     DOI: 10.1002/anie.202004239
   
   for ALPB and GBSA implicit solvation:
   * S. Ehlert, M. Stahn, S. Spicher, S. Grimme, J. Chem. Theory Comput.,
     2021, 17, 4250-4261. DOI: 10.1021/acs.jctc.1c00471
   
   for DFT-D4:
   * E. Caldeweyher, C. Bannwarth and S. Grimme, J. Chem. Phys., 2017,
     147, 034112. DOI: 10.1063/1.4993215
   * E. Caldeweyher, S. Ehlert, A. Hansen, H. Neugebauer, S. Spicher,
     C. Bannwarth and S. Grimme, J. Chem. Phys., 2019, 150, 154122.
     DOI: 10.1063/1.5090222
   * E. Caldeweyher, J.-M. Mewes, S. Ehlert and S. Grimme, Phys. Chem. Chem. Phys.
     2020, 22, 8499-8512. DOI: 10.1039/D0CP00502A
   
   for sTDA-xTB:
   * S. Grimme and C. Bannwarth, J. Chem. Phys., 2016, 145, 054103.
     DOI: 10.1063/1.4959605
   
   in the mass-spec context:
   * V. Asgeirsson, C. Bauer and S. Grimme, Chem. Sci., 2017, 8, 4879.
     DOI: 10.1039/c7sc00601b
   * J. Koopman and S. Grimme, ACS Omega 2019, 4, 12, 15120-15133.
     DOI: 10.1021/acsomega.9b02011
   
   for metadynamics refer to:
   * S. Grimme, J. Chem. Theory Comput., 2019, 155, 2847-2862
     DOI: 10.1021/acs.jctc.9b00143
   
   for SPH calculations refer to:
   * S. Spicher and S. Grimme, J. Chem. Theory Comput., 2021, 17, 1701-1714
     DOI: 10.1021/acs.jctc.0c01306
   
   with help from (in alphabetical order)
   P. Atkinson, C. Bannwarth, F. Bohle, G. Brandenburg, E. Caldeweyher
   M. Checinski, S. Dohm, S. Ehlert, S. Ehrlich, I. Gerasimov, C. Hölzer
   A. Katbashev, J. Koopman, C. Lavigne, S. Lehtola, F. März, M. Müller,
   F. Musil, H. Neugebauer, J. Pisarek, C. Plett, P. Pracht, F. Pultar,
   J. Seibert, P. Shushkov, S. Spicher, M. Stahn, M. Steiner, T. Strunk,
   J. Stückrath, T. Rose, and J. Unsleber
   
 * started run on 2026/04/17 at 12:14:17.138     

           -------------------------------------------------
          |                Calculation Setup                |
           -------------------------------------------------

          program call               : /usr/bin/xtb random_d1.90_010_m1_XTB.xyz --grad -c 0 -u 0 -P 1 --namespace random_d1.90_010_m1 --input random_d1.90_010_m1_XTB.input.tmp --acc 0.200000
          calculation namespace      : random_d1.90_010_m1
          coordinate file            : random_d1.90_010_m1_XTB.xyz
          omp threads                :                     1

   ID    Z sym.   atoms
    1    5 B      1-12

molecular fragmentation (1/2 indicates fragments):
122222222221
# atoms in fragment 1/2:     2    10
 fragment masses (1/2) :       21.62      108.11
CMA distance (Bohr)    :   3.165
constraining FC (au)   :  0.0500

           -------------------------------------------------
          |                 G F N 2 - x T B                 |
           -------------------------------------------------

        Reference                      10.1021/acs.jctc.8b01176
      * Hamiltonian:
        H0-scaling (s, p, d)           1.850000    2.230000    2.230000
        zeta-weighting                 0.500000
      * Dispersion:
        s8                             2.700000
        a1                             0.520000
        a2                             5.000000
        s9                             5.000000
      * Repulsion:
        kExp                           1.500000    1.000000
        rExp                           1.000000
      * Coulomb:
        alpha                          2.000000
        third order                    shell-resolved
        anisotropic                    true
        a3                             3.000000
        a5                             4.000000
        cn-shift                       1.200000
        cn-exp                         4.000000
        max-rad                        5.000000

q/qsh data taken from xtbrestart
CAMM data taken from xtbrestart

          ...................................................
          :                      SETUP                      :
          :.................................................:
          :  # basis functions                  48          :
          :  # atomic orbitals                  48          :
          :  # shells                           24          :
          :  # electrons                        36          :
          :  max. iterations                   250          :
          :  Hamiltonian                  GFN2-xTB          :
          :  restarted?                       true          :
          :  GBSA solvation                  false          :
          :  PC potential                    false          :
          :  electronic temp.          300.0000000     K    :
          :  accuracy                    0.2000000          :
          :  -> integral cutoff          0.3198970E+02      :
          :  -> integral neglect         0.2000000E-08      :
          :  -> SCF convergence          0.2000000E-06 Eh   :
          :  -> wf. convergence          0.2000000E-04 e    :
          :  Broyden damping             0.4000000          :
          ...................................................

 iter      E             dE          RMSdq      gap      omega  full diag
   1    -13.1222175 -0.131222E+02  0.129E+00    0.13       0.0  T
   2    -12.0297254  0.109249E+01  0.682E+00    0.27       1.0  T
   3    -12.9586144 -0.928889E+00  0.270E+00    0.11       1.0  T
   4    -12.6484435  0.310171E+00  0.513E+00    0.10       1.0  T
   5    -12.9378910 -0.289448E+00  0.272E+00    0.02       1.0  T
   6    -12.8208527  0.117038E+00  0.408E+00    0.08       1.0  T
   7    -12.8415908 -0.207381E-01  0.368E+00    0.05       1.0  T
   8    -13.0412270 -0.199636E+00  0.216E+00    0.08       1.0  T
   9    -13.0288795  0.123476E-01  0.233E+00    0.08       1.0  T
  10    -13.0546435 -0.257640E-01  0.187E+00    0.07       1.0  T
  11    -13.1034513 -0.488079E-01  0.120E+00    0.08       1.0  T
  12    -13.1214035 -0.179522E-01  0.789E-01    0.10       1.0  T
  13    -13.1260992 -0.469568E-02  0.678E-01    0.13       1.0  T
  14    -13.1293055 -0.320634E-02  0.648E-01    0.13       1.0  T
  15    -13.1318215 -0.251603E-02  0.519E-01    0.12       1.0  T
  16    -13.1314780  0.343484E-03  0.526E-01    0.12       1.0  T
  17    -13.1317030 -0.224930E-03  0.499E-01    0.12       1.0  T
  18    -13.1328539 -0.115097E-02  0.363E-01    0.11       1.0  T
  19    -13.1323269  0.527083E-03  0.359E-01    0.10       1.0  T
  20    -13.1324523 -0.125470E-03  0.325E-01    0.11       1.0  T
  21    -13.1324017  0.506530E-04  0.306E-01    0.11       1.0  T
  22    -13.1323923  0.938612E-05  0.315E-01    0.10       1.0  T
  23    -13.1320898  0.302467E-03  0.325E-01    0.10       1.0  T
  24    -13.1323592 -0.269360E-03  0.308E-01    0.10       1.0  T
  25    -13.1325779 -0.218723E-03  0.270E-01    0.11       1.0  T
  26    -13.1331604 -0.582476E-03  0.113E-01    0.11       1.0  T
  27    -13.1331823 -0.219262E-04  0.874E-02    0.11       1.0  T
  28    -13.1332337 -0.513551E-04  0.315E-02    0.11       1.0  T
  29    -13.1332354 -0.174876E-05  0.275E-02    0.11       1.1  T
  30    -13.1332427 -0.726245E-05  0.165E-02    0.11       1.8  T
  31    -13.1332458 -0.315025E-05  0.770E-03    0.11       3.8  T
  32    -13.1332458 -0.793977E-08  0.818E-03    0.11       3.5  T
  33    -13.1332456  0.207525E-06  0.786E-03    0.11       3.7  T
  34    -13.1332461 -0.444373E-06  0.524E-03    0.11       5.5  T
  35    -13.1332464 -0.353725E-06  0.213E-03    0.11      13.6  T
  36    -13.1332464 -0.256938E-07  0.113E-03    0.11      25.5  T
  37    -13.1332465 -0.909374E-08  0.617E-04    0.11      46.8  T
  38    -13.1332465 -0.347199E-08  0.221E-04    0.11     130.4  T
  39    -13.1332465 -0.551914E-09  0.678E-05    0.11     425.5  T
  40    -13.1332465  0.506937E-10  0.738E-05    0.11     391.1  T

   *** convergence criteria satisfied after 40 iterations ***

         #    Occupation            Energy/Eh            Energy/eV
      -------------------------------------------------------------
         1        2.0000           -0.4150473             -11.2940
       ...           ...                  ...                  ...
        12        2.0000           -0.2838662              -7.7244
        13        2.0000           -0.2800036              -7.6193
        14        2.0000           -0.2738385              -7.4515
        15        2.0000           -0.2698881              -7.3440
        16        2.0000           -0.2696203              -7.3367
        17        1.9899           -0.2567722              -6.9871
        18        1.7948           -0.2538150              -6.9067 (HOMO)
        19        0.1945           -0.2496381              -6.7930 (LUMO)
        20        0.0207           -0.2474213              -6.7327
        21        0.0001           -0.2426729              -6.6035
        22                         -0.2333118              -6.3487
        23                         -0.2280983              -6.2069
       ...                                ...                  ...
        48                          1.4963023              40.7165
      -------------------------------------------------------------
                  HL-Gap            0.0041769 Eh            0.1137 eV
             Fermi-level           -0.2517548 Eh           -6.8506 eV

 SCC (total)                   0 d,  0 h,  0 min,  0.053 sec
 SCC setup                      ...        0 min,  0.000 sec (  0.266%)
 Dispersion                     ...        0 min,  0.000 sec (  0.166%)
 classical contributions        ...        0 min,  0.000 sec (  0.064%)
 integral evaluation            ...        0 min,  0.003 sec (  6.168%)
 iterations                     ...        0 min,  0.044 sec ( 82.296%)
 molecular gradient             ...        0 min,  0.005 sec ( 10.313%)
 printout                       ...        0 min,  0.000 sec (  0.673%)

         :::::::::::::::::::::::::::::::::::::::::::::::::::::
         ::                     SUMMARY                     ::
         :::::::::::::::::::::::::::::::::::::::::::::::::::::
         :: total energy             -13.037920850407 Eh    ::
         :: gradient norm              0.279493589875 Eh/a0 ::
         :: HOMO-LUMO gap              0.113658568788 eV    ::
         ::.................................................::
         :: SCC energy               -13.133246461521 Eh    ::
         :: -> isotropic ES            0.048274674505 Eh    ::
         :: -> anisotropic ES         -0.000320843300 Eh    ::
         :: -> anisotropic XC         -0.037068889508 Eh    ::
         :: -> dispersion             -0.027020392680 Eh    ::
         :: repulsion energy           0.095113494729 Eh    ::
         :: add. restraining           0.000000000000 Eh    ::
         :: total charge              -0.000000000000 e     ::
         :::::::::::::::::::::::::::::::::::::::::::::::::::::


Property printout bound to 'properties.out'

           -------------------------------------------------
          | TOTAL ENERGY              -13.037920850407 Eh   |
          | GRADIENT NORM               0.279493589875 Eh/α |
          | HOMO-LUMO GAP               0.113658568788 eV   |
           -------------------------------------------------

------------------------------------------------------------------------
 * finished run on 2026/04/17 at 12:14:17.203     
------------------------------------------------------------------------
 total:
 * wall-time:     0 d,  0 h,  0 min,  0.065 sec
 *  cpu-time:     0 d,  0 h,  0 min,  0.065 sec
 * ratio c/w:     0.999 speedup
 SCF:
 * wall-time:     0 d,  0 h,  0 min,  0.053 sec
 *  cpu-time:     0 d,  0 h,  0 min,  0.053 sec
 * ratio c/w:     1.000 speedup


-------------------------   --------------------
FINAL SINGLE POINT ENERGY       -13.037920850410
-------------------------   --------------------


-------------
DIPOLE MOMENT
-------------
                                X             Y             Z
[...]
   4   B   :    0.000765658    0.001499511    0.002024158
   5   B   :    0.011303735    0.007531137    0.001277338
   6   B   :   -0.001223556   -0.001194859    0.002049858
   7   B   :   -0.010366901   -0.005758362   -0.009177637
   8   B   :    0.007685283   -0.002827058   -0.000151787
   9   B   :    0.004125741    0.000956109    0.004750128
  10   B   :   -0.004966528   -0.003699406    0.008575561
  11   B   :   -0.010008500    0.000167136   -0.007824782
  12   B   :   -0.002688688    0.002271330    0.005921876

Difference to translation invariance:
           :   -0.0000000000   -0.0000000000    0.0000000000

Difference to rotation invariance:
           :    0.0000000196    0.0000000288    0.0000000319

Norm of the Cartesian gradient     ...    0.0318713071
RMS gradient                       ...    0.0053118845
MAX gradient                       ...    0.0113037352
------------------------------------------------------------------------------
                         ORCA GEOMETRY RELAXATION STEP
------------------------------------------------------------------------------

Reading the OPT-File                    .... done
Getting information on internals        .... done
Copying old internal coords+grads       .... done
Making the new internal coordinates     .... (2022 redundants) done
Validating the new internal coordinates .... (2022 redundants) done
Calculating the B-matrix                .... done
Calculating the G,G- and P matrices     .... done
Transforming gradient to internals      .... done
Projecting the internal gradient        .... done
Number of atoms                         ....  12
Number of internal coordinates          .... 126
Current Energy                          ....   -14.221057218 Eh
Current gradient norm                   ....     0.031871307 Eh/bohr
Maximum allowed component of the step   ....  0.300
Current trust radius                    ....  0.700
Updating the Hessian (BFGS)             .... done
Forming the augmented Hessian           .... done
Diagonalizing the augmented Hessian     .... done
Last element of RFO vector              ....  0.811554197
Lowest eigenvalues of augmented Hessian:
 -0.003467375  0.000108090  0.000494017  0.002367217  0.003087560
Length of the computed step             ....  0.719948403
Warning: the length of the step is outside the trust region - taking restricted step instead
The input lambda is                     ....    -0.000956
   iter:   5  x=   -0.003589  g=  232.684055 f(x)=     0.020201
The output lambda is                    ....    -0.003592 (8 iterations)
The final length of the internal step   ....  0.700000000
Converting the step to Cartesian space:
 Initial RMS(Int)=    0.0623609564
Transforming coordinates:
 Iter   0:  RMS(Cart)=    0.0463885943 RMS(Int)=    0.5609987020
 Iter   5:  RMS(Cart)=    0.0000001332 RMS(Int)=    0.0000001324
done
Storing new coordinates                 .... done
The predicted energy change is          ....    -0.002582329
Previously predicted energy change      ....    -0.004409981
Actually observed energy change         ....    -0.003734254
Ratio of predicted to observed change   ....     0.846773373
New trust radius                        ....     0.700000000

                                .--------------------.
          ----------------------|Geometry convergence|-------------------------
          Item                value                   Tolerance       Converged
          ---------------------------------------------------------------------
          Energy change      -0.0037342542            0.0000010000      NO
          RMS gradient        0.0014019664            0.0000300000      NO
          MAX gradient        0.0074975180            0.0001000000      NO
          RMS step            0.0623609564            0.0006000000      NO
          MAX step            0.2673368961            0.0010000000      NO
          -------------------------------------------------------------------------
          ........................................................
          Max(Bonds)      0.0702      Max(Angles)    3.71
          Max(Dihed)       15.32      Max(Improp)    0.00
          ---------------------------------------------------------------------

The optimization has not yet converged - more geometry cycles are needed


    ---------------------------------------------------------------------------
                         Redundant Internal Coordinates
                            (Angstroem and degrees)

        Definition                    Value    dE/dq     Step     New-Value
    ----------------------------------------------------------------------------
     1. B(B   1,B   0)                1.7725 -0.000777  0.0293    1.8018   
     2. B(B   4,B   1)                1.8484  0.000871  0.0374    1.8858   
     3. B(B   5,B   2)                1.5919  0.000359 -0.0026    1.5893   
     4. B(B   5,B   3)                1.5486 -0.003962  0.0084    1.5571   
     5. B(B   6,B   5)                1.6198 -0.002945  0.0208    1.6406   
     6. B(B   6,B   4)                1.5607  0.005425 -0.0246    1.5361   
     7. B(B   7,B   0)                1.5781  0.001638 -0.0040    1.5741   
     8. B(B   7,B   3)                2.1771 -0.000802  0.0702    2.2473   
     9. B(B   8,B   3)                1.5181 -0.002162  0.0101    1.5281   
    10. B(B   9,B   6)                2.4266  0.003608  0.0486    2.4752   
    11. B(B   9,B   4)                1.5220  0.002978 -0.0098    1.5122   
    12. B(B   9,B   1)                1.6354 -0.000449  0.0010    1.6364   
    13. B(B   9,B   0)                1.6199  0.000167  0.0041    1.6240   
    14. B(B  10,B   8)                1.4789 -0.006057  0.0002    1.4791   
    15. B(B  10,B   7)                1.5258  0.007498 -0.0119    1.5139   
    16. B(B  11,B   2)                1.5099  0.001235  0.0002    1.5101   
    17. B(B  11,B   1)                1.5112  0.001139 -0.0048    1.5064   
    18. B(B  11,B   0)                2.4753 -0.001110  0.0579    2.5333   
    19. A(B   1,B   0,B   9)           57.43 -0.000032   -0.70     56.74   
    20. A(B   9,B   0,B  11)           94.68  0.000515   -2.28     92.39   
    21. A(B   7,B   0,B  11)          118.35 -0.000493    1.08    119.42   
    22. A(B   1,B   0,B  11)           37.25  0.000548   -1.56     35.69   
    23. A(B   1,B   0,B   7)          155.55  0.000068    0.26    155.81   
    24. A(B   7,B   0,B   9)          146.91 -0.000031    1.59    148.50   
    25. A(B   4,B   1,B   9)           51.36  0.000903   -1.01     50.36   
    26. A(B   0,B   1,B   4)           77.08  0.001076   -3.62     73.46   
    27. A(B   0,B   1,B   9)           56.59  0.000272   -0.37     56.22   
    28. A(B   9,B   1,B  11)          154.12 -0.000370    1.66    155.77   
    29. A(B   4,B   1,B  11)          128.87 -0.000043   -3.13    125.75   
    30. A(B   0,B   1,B  11)           97.53 -0.000638    2.04     99.56   
    31. A(B   5,B   2,B  11)          142.95  0.000844    0.46    143.40   
    32. A(B   7,B   3,B   8)           89.19  0.001369   -1.14     88.05   
    33. A(B   5,B   3,B   7)           74.85  0.000379   -1.58     73.27   
    34. A(B   1,B   4,B   6)           76.16 -0.000152   -0.13     76.03   
    35. A(B   6,B   4,B   9)          103.84 -0.001682    3.71    107.55   
    36. A(B   1,B   4,B   9)           57.07 -0.000709   -0.68     56.39   
    37. A(B   3,B   5,B   6)          142.92  0.001348    1.29    144.21   
    38. A(B   2,B   5,B   3)          135.35 -0.000733    2.94    138.29   
    39. A(B   2,B   5,B   6)           71.59 -0.000461   -1.94     69.66   
    40. A(B   4,B   6,B   5)          160.45  0.000863    0.02    160.48   
    41. A(B   5,B   6,B   9)          124.13  0.000224   -0.74    123.39   
    42. A(B   4,B   6,B   9)           37.52  0.000509   -1.49     36.02   
    43. A(B   3,B   7,B  10)           63.20 -0.002038   -1.58     61.63   
    44. A(B   0,B   7,B  10)          174.66 -0.002598    2.10    176.77   
    45. A(B   0,B   7,B   3)          111.81 -0.000389   -0.72    111.09   
    46. A(B   3,B   8,B  10)           84.65  0.000604   -0.05     84.60   
    47. A(B   0,B   9,B   1)           65.98 -0.000240    1.06     67.04   
    48. A(B   4,B   9,B   6)           38.64  0.001173   -2.21     36.43   
    49. A(B   1,B   9,B   6)           58.97  0.000156   -1.08     57.90   
    50. A(B   0,B   9,B   6)           53.14 -0.000813   -1.16     51.98   
    51. A(B   1,B   9,B   4)           71.56 -0.000194    1.68     73.25   
    52. A(B   0,B   9,B   4)           91.77  0.000374   -1.48     90.29   
    53. A(B   7,B  10,B   8)          122.66  0.000035    2.75    125.41   
    54. A(B   1,B  11,B   2)          101.70 -0.000665    1.45    103.15   
    55. A(B   0,B  11,B   2)           69.61 -0.000555   -0.42     69.19   
    56. A(B   0,B  11,B   1)           45.23  0.000090   -0.48     44.75   
    57. D(B   9,B   1,B   0,B   7)    175.43  0.000093   -6.18    169.25   
    58. D(B   9,B   1,B   0,B  11)    179.77 -0.000516    1.19    180.97   
    59. D(B   4,B   1,B   0,B  11)   -128.26 -0.000062    2.72   -125.53   
    60. D(B   4,B   1,B   0,B   9)     51.97  0.000453    1.53     53.50   
    61. D(B  11,B   1,B   0,B   7)     -4.34  0.000609   -7.37    -11.72   
    62. D(B   4,B   1,B   0,B   7)   -132.60  0.000546   -4.65   -137.25   
    63. D(B   6,B   4,B   1,B  11)    -29.68 -0.001444    2.81    -26.87   
    64. D(B   9,B   4,B   1,B   0)    -57.33  0.000293   -2.21    -59.54   
    65. D(B   6,B   4,B   1,B   9)    116.94 -0.001689    5.04    121.98   
    66. D(B   9,B   4,B   1,B  11)   -146.62  0.000245   -2.23   -148.86   
    67. D(B   6,B   4,B   1,B   0)     59.61 -0.001396    2.83     62.44   
    68. D(B   6,B   5,B   2,B  11)    -45.58 -0.000792   -1.09    -46.67   
    69. D(B   3,B   5,B   2,B  11)    103.68  0.000168    0.79    104.47   
    70. D(B   6,B   5,B   3,B   7)     54.51  0.000055    0.46     54.97   
    71. D(B   2,B   5,B   3,B   7)    -71.95  0.000078   -1.77    -73.72   
    72. D(B   9,B   6,B   5,B   3)    -57.48  0.000260   -1.75    -59.23   
    73. D(B   9,B   6,B   5,B   2)     85.95 -0.000417    1.35     87.30   
    74. D(B   4,B   6,B   5,B   3)    -40.21 -0.000177   10.58    -29.63   
    75. D(B   4,B   6,B   5,B   2)    103.22 -0.000854   13.68    116.90   
    76. D(B   9,B   6,B   4,B   1)    -50.41  0.000018    1.63    -48.78   
    77. D(B   5,B   6,B   4,B   9)    -23.80  0.000980  -15.32    -39.12   
    78. D(B   5,B   6,B   4,B   1)    -74.21  0.000998  -13.69    -87.90   
    79. D(B  10,B   7,B   3,B   5)    168.34 -0.000307   -0.97    167.37   
    80. D(B   0,B   7,B   3,B   8)    178.35  0.000943    0.37    178.72   
    81. D(B   0,B   7,B   3,B   5)     -9.57  0.000725   -0.45    -10.02   
    82. D(B   3,B   7,B   0,B   9)   -119.94 -0.000115   -4.75   -124.70   
    83. D(B   3,B   7,B   0,B   1)     67.12 -0.000267    3.73     70.86   
    84. D(B   3,B   7,B   0,B  11)     64.14  0.000127   -1.76     62.38   
    85. D(B  10,B   7,B   0,B   9)   -140.42  0.000083    0.44   -139.97   
    86. D(B  10,B   7,B   3,B   8)     -3.74 -0.000090   -0.15     -3.89   
    87. D(B  10,B   7,B   0,B   1)     46.65 -0.000069   -6.67     39.98   
    88. D(B  10,B   8,B   5,B   6)     47.48  0.000547   -0.95     46.53   
    89. D(B  10,B   8,B   5,B   2)    -62.69 -0.000296   -0.74    -63.43   
    90. D(B  10,B   8,B   3,B   7)      3.45  0.000305    0.10      3.56   
    91. D(B   1,B   9,B   6,B   5)    -90.10 -0.000772   -0.53    -90.63   
    92. D(B   1,B   9,B   6,B   4)     99.28 -0.001516    4.20    103.49   
    93. D(B   0,B   9,B   6,B   5)     -8.31 -0.000795    1.33     -6.98   
    94. D(B   0,B   9,B   6,B   4)   -178.93 -0.001539    6.06   -172.86   
    95. D(B   6,B   9,B   4,B   1)     63.06  0.000800   -2.47     60.59   
    96. D(B   1,B   9,B   4,B   6)    -63.06 -0.000800    2.47    -60.59   
    97. D(B   0,B   9,B   4,B   6)      0.86 -0.001241    5.46      6.32   
    98. D(B   6,B   9,B   1,B   4)    -40.51 -0.001520    2.85    -37.66   
    99. D(B   6,B   9,B   1,B   0)     60.11 -0.000880   -1.28     58.83   
   100. D(B   4,B   9,B   1,B  11)    101.13  0.001806   -5.74     95.39   
   101. D(B   4,B   9,B   1,B   0)    100.62  0.000641   -4.13     96.49   
   102. D(B   0,B   9,B   4,B   1)     63.92 -0.000441    2.98     66.90   
   103. D(B   0,B   9,B   1,B  11)      0.51  0.001165   -1.62     -1.10   
   104. D(B   0,B   9,B   1,B   4)   -100.62 -0.000641    4.13    -96.49   
   105. D(B   6,B   9,B   0,B   1)    -68.21 -0.000495    1.17    -67.04   
   106. D(B   4,B   9,B   0,B  11)    -69.02  0.000134   -2.97    -71.99   
   107. D(B   4,B   9,B   0,B   7)    114.58  0.000366    0.03    114.61   
   108. D(B   4,B   9,B   0,B   1)    -68.89  0.000449   -3.68    -72.57   
   109. D(B   1,B   9,B   0,B  11)     -0.14 -0.000315    0.72      0.58   
   110. D(B   4,B   9,B   6,B   5)    170.61  0.000744   -4.73    165.88   
   111. D(B   1,B   9,B   0,B   7)   -176.54 -0.000082    3.71   -172.82   
   112. D(B   7,B  10,B   8,B   3)     -5.86 -0.000237   -0.34     -6.20   
   113. D(B   8,B  10,B   7,B   3)      4.56  0.000226    0.22      4.77   
   114. D(B   8,B  10,B   7,B   0)     25.89  0.000481   -4.70     21.19   
   115. D(B   2,B  11,B   0,B   9)    132.54 -0.000083    2.54    135.08   
   116. D(B   2,B  11,B   0,B   7)    -49.69 -0.000219    0.28    -49.41   
   117. D(B   2,B  11,B   0,B   1)    132.35 -0.000519    3.62    135.97   
   118. D(B   1,B  11,B   0,B   9)      0.19  0.000436   -1.08     -0.89   
   119. D(B   1,B  11,B   0,B   7)    177.96  0.000301   -3.34    174.62   
   120. D(B   1,B  11,B   2,B   5)     20.58  0.000666   -1.23     19.35   
   121. D(B   0,B  11,B   2,B   5)    -11.81  0.000396    0.59    -11.23   
   122. D(B   2,B  11,B   1,B   9)    -45.46 -0.001112    3.90    -41.56   
   123. D(B   2,B  11,B   1,B   4)     34.42  0.000746    0.21     34.62   
   124. D(B   2,B  11,B   1,B   0)    -45.03 -0.000130    2.71    -42.32   
   125. D(B   0,B  11,B   1,B   9)     -0.43 -0.000982    1.20      0.77   
   126. D(B   0,B  11,B   1,B   4)     79.44  0.000876   -2.50     76.94   
    ----------------------------------------------------------------------------

Geometry step timings:
Preparation and reading OPT file:      0.000 s ( 0.563 %)
Internal coordinates            :      0.000 s ( 0.829 %)
B/P matrices and projection     :      0.001 s (19.640 %)
Hessian update/contruction      :      0.001 s (11.487 %)
Making the step                 :      0.003 s (46.745 %)
Converting the step to Cartesian:      0.000 s ( 2.895 %)
Storing new data                :      0.000 s ( 0.986 %)
Checking convergence            :      0.000 s ( 1.142 %)
Final printing                  :      0.001 s (15.696 %)
Total time                      :      0.006 s

Time for energy+gradient        :      0.058 s
Time for complete geometry iter :      0.066 s




    ----------------------------------------------------------------------------
                                  WARNING !!!
       The optimization did not converge but reached the maximum number of
       optimization cycles.
       Please check your results very carefully.
    ----------------------------------------------------------------------------



--------------------------------
SUGGESTED CITATIONS FOR THIS RUN
--------------------------------

Below you find a list of papers that are relevant to this ORCA run
We neither can nor want to force you to cite these papers, but we appreciate if you do
You receive ORCA, which is the product of decades of hard work by many enthusiastic individuals, for free
The only thing we kindly ask in return is that you cite our papers,
We deeply appreciate it, if you show your appreciation for ORCA by not just citing the generic ORCA reference.

Please note that relegating all ORCA citations to the supporting information does *not* help us.
SI sections are not indexed - citations you put there will not count into any citation statistics
But we need these citations in order to attract the funding resources that allow us to do what we are doing

Therefore, if you are a happy ORCA user, please consider citing a few of the papers listed below in the main body of your paper

In addition to the list printed below, the program has created the file random_d1.90_010_m1.bibtex that contains the list in bibtex format
You can import this file easily into all common literature databanks and citation aid programs

It goes without saying that in many instances, there are alternative algorithms to achieve similar
results as the ones you have gotten from ORCA. It is, of course, also the case that in some instances
ORCA just re-implements algorithms worked out by others. We are fully aware of that and we are also
fully appreciative of our colleagues work. Hence this citation list should not be read as indicating
that the listed papers, which are focused on our own work, are the only ones worth citing. It simply
meant to make it easier for users to cite ORCA specific papers. It is not a substitute for doing your
own literature research and citing the relevant literature in a scientifically appropriate manner.

List of essential papers. We consider these as the minimum necessary citations

  1. Bannwarth, C.; Ehlert, S.; Grimme, S.
     GFN2-xTB—An Accurate and Broadly Parametrized Self-Consistent Tight-Binding Quantum Chemical Method with Multipole Electrostatics and Density-Dependent Dispersion Contributions
     J. Chem. Theory Comput. 2019 15(3), 1652-1671
     doi.org/10.1021/acs.jctc.8b01176
  2. Neese, F.
     Software update: the ORCA program system, version 6.0
     WIRES Comput. Molec. Sci. 2025 15(1), e70019
     doi.org/10.1002/wcms.70019

List of papers to cite with high priority. The work reported in these papers was absolutely
necessary for this run to complete.
Our perspective: the developers of density functionals and basis sets usually get cited in chemistry papers
Good! But without the algorithms to do something with them, the functionals or basis sets would not do anything.
Hence, in our opinion, the algorithm design and method developments papers are equally worthy of getting cited

  1. Bannwarth, C.; Caldeweyher, E.; Ehlert, S.; Hansen, A.; Pracht, P.; Seibert, J.; Spicher, S.; Grimme, S.
     Extended tight-binding quantum chemistry methods
     WIRES Comput. Molec. Sci. 2020 11(2), e1493
     doi.org/10.1002/wcms.1493

List of suggested additional citations. These are papers that are important in the 'surrounding' of 
of this run, or papers that preceded the highly important papers. If you like your results we are grateful for a citation.

  1. Neese, F.
     The ORCA program system
     WIRES Comput. Molec. Sci. 2012 2(1), 73-78
     doi.org/10.1002/wcms.81
  2. Neese, F.
     Software update: the ORCA program system, version 4.0
     WIRES Comput. Molec. Sci. 2018 8(1), 1-6
     doi.org/10.1002/wcms.1327
  3. Neese, F.; Wennmohs, F.; Becker, U.; Riplinger, C.
     The ORCA quantum chemistry program package
     J. Chem. Phys. 2020 152(22), 224108
     doi.org/10.1063/5.0004608
  4. Neese, F.
     Software update: The ORCA program system—Version 5.0
     WIRES Comput. Molec. Sci. 2022 12(1), e1606
     doi.org/10.1002/wcms.1606

List of optional additional citations

  1. Neese, F.
     Approximate second-order SCF convergence for spin unrestricted wavefunctions
     Chem. Phys. Lett. 2000 325(1-3), 93-98
     doi.org/10.1016/s0009-2614(00)00662-x

Timings for individual modules:

Sum of individual times          ...        3.283 sec (=   0.055 min)
Geometry relaxation              ...        0.491 sec (=   0.008 min)  14.9 %
XTB module                       ...        2.793 sec (=   0.047 min)  85.1 %
                             ****ORCA TERMINATED NORMALLY****
TOTAL RUN TIME: 0 days 0 hours 0 minutes 3 seconds 778 msec
