
                                 *****************
                                 * O   R   C   A *
                                 *****************

                                            #,                                       
                                            ###                                      
                                            ####                                     
                                            #####                                    
                                            ######                                   
                                           ########,                                 
                                     ,,################,,,,,                         
                               ,,#################################,,                 
                          ,,##########################################,,             
                       ,#########################################, ''#####,          
                    ,#############################################,,   '####,        
                  ,##################################################,,,,####,       
                ,###########''''           ''''###############################       
              ,#####''   ,,,,##########,,,,          '''####'''          '####       
            ,##' ,,,,###########################,,,                        '##       
           ' ,,###''''                  '''############,,,                           
         ,,##''                                '''############,,,,        ,,,,,,###''
      ,#''                                            '''#######################'''  
     '                                                          ''''####''''         
             ,#######,   #######,   ,#######,      ##                                
            ,#'     '#,  ##    ##  ,#'     '#,    #''#        ,####,    ,#,          
            ##       ##  ##   ,#'  ##            #'  '#       #'       ,# #          
            ##       ##  #######   ##           ,######,      #####,      #          
            '#,     ,#'  ##    ##  '#,     ,#' ,#      #,     #,   #      #          
             '#######'   ##     ##  '#######'  #'      '#     '####' #    #          



                #########################################################
                #                        -***-                          #
                #          Department of theory and spectroscopy        #
                #                                                       #
                #                      Frank Neese                      #
                #                                                       #
                #     Directorship, Architecture, Infrastructure        #
                #                    SHARK, DRIVERS                     #
                #        Core code/Algorithms in most modules           #
                #                                                       #
                #        Max Planck Institute fuer Kohlenforschung      #
                #                Kaiser Wilhelm Platz 1                 #
                #                 D-45470 Muelheim/Ruhr                 #
                #                      Germany                          #
                #                                                       #
                #                  All rights reserved                  #
                #                        -***-                          #
                #########################################################


                         Program Version 6.1.1  -  RELEASE   -
                                (GIT: $487d211c$)
                          ($2025-11-21 10:33:24 +0100$)
                                                                         
                                  - NO-DMRG VERSION -                    
                                                                         


 With contributions from (in alphabetic order):
[Max-Planck-Institut fuer Kohlenforschung]                               
  Daniel Aravena         : Magnetic Suceptibility                        
  Michael Atanasov       : Ab Initio Ligand Field Theory (pilot matlab implementation)
  Alexander A. Auer      : GIAO ZORA, VPT2 properties, NMR spectrum      
  Ute Becker             : All parallelization in ORCA, NUMFREQ, NUMCALC 
  Giovanni Bistoni       : ED, misc. LED, open-shell LED, HFLD           
  Dmytro Bykov           : pre 5.0 version of the SCF Hessian            
  Marcos Casanova-Páez   : Triplet and SCS-CIS(D). UHF-(DLPNO)-IP/EA/STEOM-CCSD. UHF-CVS-IP/STEOM-CCSD   
  Vijay G. Chilkuri      : MRCI spin determinant printing, contributions to CSF-ICE 
  Pauline Colinet        : FMM embedding                                 
  Dipayan Datta          : RHF DLPNO-CCSD density                        
  Achintya Kumar Dutta   : EOM-CC, STEOM-CC                              
  Nicolas Foglia         : Exact transition moments, OPA infrastructure, MCD improvements    
  Dmitry Ganyushin       : Spin-Orbit,Spin-Spin,Magnetic field MRCI      
  Miquel Garcia-Rates    : C-PCM and meta-GGA Hessian, CCSD/C-PCM, Gaussian charge scheme 
  Tiago L. C. Gouveia    : GS-ROHF, GS-ROCIS                             
  Yang Guo               : DLPNO-NEVPT2, F12-NEVPT2, CIM, IAO-localization        
  Andreas Hansen         : Spin unrestricted coupled pair/coupled cluster methods 
  Ingolf Harden          : AUTO-CI MPn and infrastructure                
  Benjamin Helmich-Paris : MC-RPA, TRAH-(SCF,CASSCF), AVAS, COSX integrals, SCF dyn. polar., MC-PDFT, srDFT 
  Lee Huntington         : MR-EOM, pCC                                   
  Robert Izsak           : Overlap fitted RIJCOSX, COSX-SCS-MP3, EOM     
  Riya Kayal             : Wick's Theorem for AUTO-CI, AUTO-CI UHF-CCSDT 
  Emily Kempfer          : AUTO-CI RHF CISDT and CCSDT, approximate NEVPT4
  Christian Kollmar      : KDIIS, OOCD, Brueckner-CCSD(T), CCSD density, CASPT2, CASPT2-K, improved NEVPT2 
  Axel Koslowski         : Symmetry handling                             
  Simone Kossmann        : meta-GGA functionals, TD-DFT gradient, OOMP2, (MP2 Hessian; deprecated post 5.0) 
  Lucas Lang             : DCDCAS, Hyperfine gauge corrections, ICE-SOC+SSC
  Marvin Lechner         : AUTO-CI (C++ implementation), FIC-MRCC        
  Spencer Leger          : CASSCF response                               
  Dagmar Lenk            : GEPOL surface, SMD, ORCA-2-JSON               
  Dimitrios Liakos       : Extrapolation schemes; Compound Job, Property file
  Dimitrios Manganas     : Further ROCIS development; embedding schemes. LFT, Crystal Embedding 
  Dimitrios Pantazis     : SARC Basis sets                               
  Anastasios Papadopoulos: AUTO-CI, single reference methods and gradients 
  Taras Petrenko         : pre 6.0 DFT Hessian and TD-DFT gradient,  ECA, NRVS 
  Petra Pikulova         : Analytic Raman intensities                    
  Peter Pinski           : DLPNO-MP2, DLPNO-MP2 Gradient                 
  Shashank Vittal Rao    : ES-AILFT, MagRelax                            
  Christoph Reimann      : Effective Core Potentials                     
  Marius Retegan         : Local ZFS, SOC                                
  Christoph Riplinger    : Optimizer, TS searches, QM/MM, DLPNO-CCSD(T), (RO)-DLPNO pert. Triples 
  Michael Roemelt        : Original ROCIS implementation, recursive CI coupling coefficients
  Masaaki Saitow         : Open-shell DLPNO-CCSD energy and density      
  Barbara Sandhoefer     : DKH picture change effects                    
  Yorick L. A. Schmerwitz: GMF and freeze-and-release deltaSCF, NEB S-IDPP initial path                    
  Kantharuban Sivalingam : CASSCF convergence/infrastructure, NEVPT2, NEVPT3, NEVPT4(SD), FIC-MRCI and CEPA variants
  Bernardo de Souza      : ESD, SOC TD-DFT                               
  Georgi L. Stoychev     : AutoAux, RI-MP2 NMR, DLPNO-MP2 response, X2C  
  Van Anh Tran           : RI-MP2 g-tensors                              
  Willem Van den Heuvel  : Paramagnetic NMR                              
  Zikuan Wang            : NOTCH, Electric field optimization            
  Frank Wennmohs         : Technical directorship and infrastructure     
  Hang Xu                : AUTO-CI-Response properties                   
                                                                         
[FACCTs GmbH]                                                            
  Markus Bursch, Nicolas Foglia, Miquel Garcia-Rates, Ingolf Harden, Hagen Neugebauer, Anastasios Papadopoulos, 
  Christoph Riplinger, Bernardo de Souza, Georgi L. Stoychev                                                    
                                                                 
  APM, various basis sets, CI-OPT, improved COSX, DLPNO-Multilevel,           
  DOCKER, DRACO, updates on ESD, Fragmentator, GOAT, IRC, LR-CPCM, L-BFGS, MBIS, meta-GGA TD-DFT gradient, ML-optimized integration grids, 
  MM, NACMEs, nearIR, NEB, NEB-TS, NL-DFT gradient (VV10), 2- and 3-layer-ONIOM, interface openCOSMO-RS, QMMM,   
  Crystal-QMMM, RESP, rigid body optimization, SF, symmetry and pop. for TD-DFT, various functionals, SOLVATOR                                   
                                                                         
[Other institutions]                                                     
  V. Asgeirsson          : NEB                                           
  Christoph Bannwarth    : sTDA-DFT, sTD-DFT, PBEh-3c, B97-3c, D3        
  Giovanni Bistoni       : ETS/NOCV, ADLD/ADEX, COVALED                  
  Martin Brehm           : Molecular dynamics                            
  Ronald Cardenas        : ETS/NOCV                                      
  Martina Colucci        : COVALED                                       
  Sebastian Ehlert       : rSCAN, r2SCAN, r2SCAN-3c, D4, dhf basis sets  
  Marvin Friede          : D4 for Fr, Ra, Ac-Lr                          
  Lars Goerigk           : TD-DFT with DH, B97 family of functionals     
  Stefan Grimme          : VdW corrections, initial TS optimization, DFT functionals, gCP, sTDA/sTD-DF 
  Waldemar Hujo          : DFT-NL                                        
  H. Jonsson             : NEB                                           
  Holger Kruse           : gCP                                           
  Marcel Mueller         : wB97X-3c, vDZP basis set                      
  Hagen Neugebauer       : wr2SCAN, Native XTB                           
  Gianluca Regni         : ADLD/ADEX                                     
  Tobias Risthaus        : pre 6.0 range-separated hybrid DFT and stability analysis
  Lukas Wittmann         : regularized MP2, r2SCAN double-hybrids, wr2SCAN        
                                                                         
We gratefully acknowledge several colleagues who have allowed us to      
interface, adapt or use parts of their codes:                            
  Ed Valeev, F. Pavosevic, A. Kumar             : LibInt (2-el integral package), F12 methods 
  Garnet Chan, S. Sharma, J. Yang, R. Olivares  : DMRG                   
  Ulf Ekstrom                                   : XCFun DFT Library      
  Mihaly Kallay                                 : mrcc  (arbitrary order and MRCC methods)
  Frank Weinhold                                : gennbo (NPA and NBO analysis)           
  Simon Mueller                                 : openCOSMO-RS                            
  Christopher J. Cramer and Donald G. Truhlar   : smd solvation model                     
  S Lehtola, MJT Oliveira, MAL Marques          : LibXC Library                           
  Liviu Ungur et al                             : ANISO software                          


 Your calculation uses the libint2 library for the computation of 2-el integrals
 For citations please refer to: http://libint.valeyev.net

 Your ORCA version has been built with support for libXC version: 7.0.0
 For citations please refer to: https://libxc.gitlab.io

 This ORCA versions uses:
   CBLAS   interface :  Fast vector & matrix operations
   LAPACKE interface :  Fast linear algebra routines
   SCALAPACK package :  Parallel linear algebra routines
   Shared memory     :  Shared parallel matrices
   BLAS/LAPACK       :  OpenBLAS 0.3.29  USE64BITINT DYNAMIC_ARCH NO_AFFINITY Zen SINGLE_THREADED
        Core in use  :  Zen
   Copyright (c) 2011-2014, The OpenBLAS Project


  ***********************************
  * Starting time: Fri Apr 17 12:14:10 2026
  * Host name:     vmi3233575
  * Process ID:    332451
  * Working dir.:  /root/orca_b12_vps_pack/jobs/01_xtb/mult_1
  ***********************************

NOTE: MaxCore=500 MB was set to SCF,MP2,MDCI,CIPSI,MRCI,RASCI and CIS
      => If you want to overwrite this, your respective input block should be placed after the MaxCore statement


***************************************
The coordinates will be read from file: ../../../starts/random_d1.90_001.xyz
***************************************


Your calculation utilizes the semiempirical GFN2-xTB method
Please cite in your paper:
Bannwarth, C.; Ehlert S.; Grimme, S. J. Chem. Theory Comput. 2019, 15, 1652.
   

================================================================================

================================================================================
                                        WARNINGS
                       Please study these warnings very carefully!
================================================================================


WARNING: Geometry Optimization
  ===> : Switching off AutoStart
         For restart on a previous wavefunction, please use MOREAD

WARNING: Found dipole moment calculation with XTB calculation
  ===> : Switching off dipole moment calculation

Environment variable XTBEXE for xtb has been set!

================================================================================
                                       INPUT FILE
================================================================================
NAME = random_d1.90_001_m1.inp
|  1> ! GFN2-xTB TightSCF TightOpt
|  2> 
|  3> %pal
|  4>   nprocs 1
|  5> end
|  6> 
|  7> %maxcore 500
|  8> 
|  9> * xyzfile 0 1 ../../../starts/random_d1.90_001.xyz
| 10> 
| 11>                          ****END OF INPUT****
================================================================================

                       *****************************
                       * Geometry Optimization Run *
                       *****************************

Geometry optimization settings:
Update method            Update   .... BFGS
Choice of coordinates    CoordSys .... (2022) Redundant Internals
Initial Hessian          InHess   .... Almloef's Model
Max. no of cycles        MaxIter  .... 50

Convergence Tolerances:
Energy Change            TolE     ....  1.0000e-06 Eh
Max. Gradient            TolMAXG  ....  1.0000e-04 Eh/bohr
RMS Gradient             TolRMSG  ....  3.0000e-05 Eh/bohr
Max. Displacement        TolMAXD  ....  1.0000e-03 bohr
RMS Displacement         TolRMSD  ....  6.0000e-04 bohr
Strict Convergence                .... False

------------------------------------------------------------------------------
                        ORCA OPTIMIZATION COORDINATE SETUP
------------------------------------------------------------------------------

The optimization will be done in redundant internal coordinates (2022)
Making redundant internal coordinates   ...  (2022 redundants) done
Evaluating the initial hessian          ...  (Almloef) done
Evaluating the coordinates              ...  done
Calculating the B-matrix                .... done
Calculating the G-matrix                .... done
The number of degrees of freedom        ....  253

    -----------------------------------------------------------------
                    Redundant Internal Coordinates


    -----------------------------------------------------------------
         Definition                    Initial Value    Approx d2E/dq
    -----------------------------------------------------------------
      1. B(B   1,B   0)                  3.8453         0.010000   
      2. B(B   3,B   2)                  1.9232         0.118239   
      3. B(B   4,B   3)                  2.8436         0.010000   
      4. B(B   5,B   1)                  4.1287         0.010000   
      5. B(B   5,B   2)                  2.5182         0.013286   
      6. B(B   6,B   4)                  3.4974         0.010000   
      7. B(B   7,B   6)                  1.8626         0.147712   
      8. B(B   7,B   4)                  2.7357         0.010000   
      9. B(B   8,B   2)                  2.1049         0.060655   
     10. B(B   9,B   6)                  2.6717         0.010000   
     11. B(B   9,B   0)                  1.4185         0.754789   
     12. B(B   9,B   7)                  2.8945         0.010000   
     13. B(B  10,B   4)                  3.3030         0.010000   
     14. B(B  10,B   6)                  3.1551         0.010000   
     15. B(B  10,B   1)                  3.2328         0.010000   
     16. B(B  10,B   5)                  2.2901         0.030719   
     17. B(B  10,B   9)                  3.5739         0.010000   
     18. B(B  11,B   9)                  3.4989         0.010000   
     19. B(B  11,B   4)                  3.0142         0.010000   
     20. B(B  11,B  10)                  1.5518         0.462553   
     21. B(B  11,B   3)                  2.0611         0.071242   
     22. B(B  11,B   5)                  2.4159         0.019350   
     23. B(B  11,B   7)                  3.5699         0.010000   
     24. A(B   1,B   0,B   9)          100.2546         0.141327   
     25. A(B   0,B   1,B  10)           71.0510         0.100577   
     26. A(B   5,B   1,B  10)           33.5281         0.098146   
     27. A(B   0,B   1,B   5)           88.6352         0.094496   
     28. A(B   3,B   2,B   8)          116.4992         0.235219   
     29. A(B   3,B   2,B   5)           89.9562         0.192692   
     30. A(B   5,B   2,B   8)           86.1891         0.178152   
     31. A(B   2,B   3,B   4)          148.7946         0.168113   
     32. A(B   2,B   3,B  11)           74.9225         0.240642   
     33. A(B   4,B   3,B  11)           73.9117         0.159542   
     34. A(B   6,B   4,B  11)           69.6263         0.107542   
     35. A(B  10,B   4,B  11)           27.9639         0.110795   
     36. A(B   7,B   4,B  11)           76.5860         0.123930   
     37. A(B   3,B   4,B   7)          108.9147         0.129255   
     38. A(B   3,B   4,B   6)          110.4866         0.110369   
     39. A(B   3,B   4,B  11)           41.0711         0.120934   
     40. A(B   6,B   4,B   7)           31.8947         0.112374   
     41. A(B   7,B   4,B  10)           76.2140         0.116474   
     42. A(B   6,B   4,B  10)           55.1961         0.103585   
     43. A(B   3,B   4,B  10)           62.8492         0.114118   
     44. A(B  10,B   5,B  11)           38.3916         0.172217   
     45. A(B   1,B   5,B  11)           81.9849         0.107040   
     46. A(B   1,B   5,B   2)          133.1866         0.105569   
     47. A(B   1,B   5,B  10)           51.2356         0.109030   
     48. A(B   2,B   5,B  11)           58.8529         0.157838   
     49. A(B   2,B   5,B  10)           97.0751         0.165428   
     50. A(B   7,B   6,B   9)           77.0571         0.184982   
     51. A(B   4,B   6,B  10)           59.2720         0.105493   
     52. A(B   9,B   6,B  10)           75.1525         0.121769   
     53. A(B   4,B   6,B   9)          103.0909         0.113652   
     54. A(B   7,B   6,B  10)           93.2372         0.153216   
     55. A(B   4,B   6,B   7)           50.9003         0.137310   
     56. A(B   6,B   7,B   9)           64.1033         0.168752   
     57. A(B   4,B   7,B  11)           55.2176         0.111007   
     58. A(B   9,B   7,B  11)           64.5519         0.108285   
     59. A(B   4,B   7,B   9)          119.2572         0.127587   
     60. A(B   6,B   7,B  11)           80.3201         0.134484   
     61. A(B   4,B   7,B   6)           97.2050         0.180006   
     62. A(B   0,B   9,B   7)          161.3366         0.204367   
     63. A(B   6,B   9,B   7)           38.8396         0.129697   
     64. A(B  10,B   9,B  11)           25.3205         0.100629   
     65. A(B   7,B   9,B  10)           70.0381         0.108222   
     66. A(B   6,B   9,B  10)           58.5773         0.112133   
     67. A(B   0,B   9,B  10)          103.5716         0.154578   
     68. A(B   0,B   9,B   6)          122.6473         0.227845   
     69. A(B   7,B   9,B  11)           67.1169         0.109458   
     70. A(B   6,B   9,B  11)           73.2024         0.113622   
     71. A(B   0,B   9,B  11)          114.7737         0.158797   
     72. A(B   5,B  10,B   9)          127.6785         0.120772   
     73. A(B   5,B  10,B   6)          173.4820         0.134007   
     74. A(B   4,B  10,B  11)           65.6164         0.162525   
     75. A(B   5,B  10,B  11)           75.1951         0.259692   
     76. A(B   4,B  10,B   9)           89.8062         0.102686   
     77. A(B   4,B  10,B   5)          114.5917         0.128798   
     78. A(B   6,B  10,B   9)           46.2702         0.104477   
     79. A(B   6,B  10,B  11)           99.4889         0.172147   
     80. A(B   9,B  10,B  11)           74.6369         0.147698   
     81. A(B   1,B  10,B   9)           78.8147         0.103508   
     82. A(B   1,B  10,B   4)          148.5282         0.107173   
     83. A(B   1,B  10,B   6)           86.0059         0.109552   
     84. A(B   1,B  10,B  11)          136.2032         0.166944   
     85. A(B   4,B  10,B   6)           65.5319         0.108387   
     86. A(B   1,B  10,B   5)           95.2363         0.131190   
     87. A(B   5,B  11,B   7)          150.4337         0.117712   
     88. A(B   5,B  11,B   9)          126.0279         0.119458   
     89. A(B   4,B  11,B   5)          121.1216         0.134572   
     90. A(B   5,B  11,B  10)           66.4133         0.242739   
     91. A(B   3,B  11,B   5)           89.7014         0.189670   
     92. A(B   3,B  11,B  10)          126.0815         0.295491   
     93. A(B   7,B  11,B   9)           48.3312         0.100668   
     94. A(B   4,B  11,B   7)           48.1964         0.106458   
     95. A(B   7,B  11,B  10)           84.4854         0.147893   
     96. A(B   3,B  11,B   7)          104.2480         0.127564   
     97. A(B   4,B  11,B   9)           96.1908         0.107519   
     98. A(B   4,B  11,B  10)           86.4197         0.182476   
     99. A(B   3,B  11,B   4)           65.0172         0.150210   
    100. A(B   9,B  11,B  10)           80.0426         0.151475   
    101. A(B   3,B  11,B   9)          143.7269         0.129909   
    102. D(B  10,B   1,B   0,B   9)    -23.7066         0.010000   
    103. D(B   5,B   1,B   0,B   9)    -52.8446         0.010000   
    104. D(B   4,B   3,B   2,B   8)     38.2346         0.010000   
    105. D(B  11,B   3,B   2,B   5)    -50.4364         0.010000   
    106. D(B  11,B   3,B   2,B   8)     35.2827         0.010000   
    107. D(B   4,B   3,B   2,B   5)    -47.4844         0.010000   
    108. D(B   7,B   4,B   3,B  11)    -39.9631         0.010000   
    109. D(B  10,B   4,B   3,B   2)     19.7590         0.010000   
    110. D(B   6,B   4,B   3,B  11)     -6.0672         0.010000   
    111. D(B   7,B   4,B   3,B   2)    -42.9296         0.010000   
    112. D(B  11,B   4,B   3,B   2)     -2.9665         0.010000   
    113. D(B   6,B   4,B   3,B   2)     -9.0337         0.010000   
    114. D(B  10,B   5,B   2,B   3)     44.1402         0.010000   
    115. D(B  11,B   5,B   1,B   0)     30.9167         0.010000   
    116. D(B  11,B   5,B   2,B   8)    -68.6613         0.010000   
    117. D(B  11,B   5,B   2,B   3)     47.9044         0.010000   
    118. D(B   2,B   5,B   1,B   0)     -1.0285         0.010000   
    119. D(B  10,B   5,B   1,B   0)     56.4878         0.010000   
    120. D(B   1,B   5,B   2,B   3)     85.6525         0.010000   
    121. D(B  11,B   5,B   1,B  10)    -25.5711         0.010000   
    122. D(B   2,B   5,B   1,B  10)    -57.5163         0.010000   
    123. D(B  10,B   5,B   2,B   8)    -72.4256         0.010000   
    124. D(B   7,B   6,B   4,B  11)    -97.3767         0.010000   
    125. D(B   7,B   6,B   4,B   3)    -93.1287         0.010000   
    126. D(B   9,B   6,B   4,B   3)    -32.1604         0.010000   
    127. D(B   9,B   6,B   4,B   7)     60.9683         0.010000   
    128. D(B   9,B   6,B   4,B  11)    -36.4085         0.010000   
    129. D(B   9,B   6,B   4,B  10)    -63.6228         0.010000   
    130. D(B   7,B   6,B   4,B  10)   -124.5910         0.010000   
    131. D(B   6,B   7,B   4,B  11)     72.8929         0.010000   
    132. D(B   6,B   7,B   4,B   3)     98.6031         0.010000   
    133. D(B   4,B   7,B   6,B   9)   -119.0933         0.010000   
    134. D(B  11,B   7,B   6,B   9)    -66.3128         0.010000   
    135. D(B  11,B   7,B   6,B   4)     52.7805         0.010000   
    136. D(B   4,B   7,B   6,B  10)    -45.1356         0.010000   
    137. D(B   9,B   7,B   6,B  10)     73.9577         0.010000   
    138. D(B   9,B   7,B   4,B   3)     34.3106         0.010000   
    139. D(B   9,B   7,B   4,B   6)    -64.2926         0.010000   
    140. D(B   9,B   7,B   4,B  11)      8.6004         0.010000   
    141. D(B   9,B   7,B   4,B  10)    -20.1849         0.010000   
    142. D(B   9,B   7,B   6,B   4)    119.0933         0.010000   
    143. D(B   6,B   7,B   4,B  10)     44.1077         0.010000   
    144. D(B   0,B   9,B   7,B   4)     92.0710         0.010000   
    145. D(B  11,B   9,B   7,B   4)     -7.8176         0.010000   
    146. D(B   6,B   9,B   7,B   4)     83.5597         0.010000   
    147. D(B   6,B   9,B   7,B  11)     91.3773         0.010000   
    148. D(B   0,B   9,B   7,B  11)     99.8886         0.010000   
    149. D(B   0,B   9,B   7,B   6)      8.5113         0.010000   
    150. D(B  11,B   9,B   6,B   4)     30.0467         0.010000   
    151. D(B  11,B   9,B   6,B   7)     74.1719         0.010000   
    152. D(B  11,B   9,B   7,B   6)    -91.3773         0.010000   
    153. D(B   7,B   9,B   6,B  10)    -96.9422         0.010000   
    154. D(B   0,B   9,B   6,B  10)     86.2824         0.010000   
    155. D(B   0,B   9,B   6,B   4)    139.0994         0.010000   
    156. D(B   7,B   9,B   0,B   1)    -46.7702         0.029195   
    157. D(B  11,B   9,B   0,B   1)     44.8367         0.029195   
    158. D(B  10,B   9,B   0,B   1)     20.7233         0.029195   
    159. D(B   6,B   9,B   0,B   1)    -40.4413         0.029195   
    160. D(B   7,B   9,B   6,B   4)    -44.1252         0.010000   
    161. D(B   0,B   9,B   6,B   7)   -176.7754         0.010000   
    162. D(B  11,B  10,B   1,B   0)    -44.1740         0.010000   
    163. D(B  11,B  10,B   1,B   5)     74.0276         0.010000   
    164. D(B   6,B  10,B   1,B   0)     55.3789         0.010000   
    165. D(B   4,B  10,B   9,B   7)    -13.7747         0.010000   
    166. D(B   4,B  10,B   9,B   6)    -55.2532         0.010000   
    167. D(B   4,B  10,B   9,B   0)   -175.4422         0.010000   
    168. D(B   6,B  10,B   9,B  11)    119.9622         0.010000   
    169. D(B   6,B  10,B   9,B   7)     41.4784         0.010000   
    170. D(B   6,B  10,B   9,B   0)   -120.1890         0.010000   
    171. D(B  11,B  10,B   9,B   6)   -119.9622         0.010000   
    172. D(B  11,B  10,B   9,B   0)    119.8488         0.010000   
    173. D(B   5,B  10,B   6,B   7)    -52.7900         0.010000   
    174. D(B   9,B  10,B   6,B   7)    -75.6951         0.010000   
    175. D(B   4,B  10,B   6,B   9)    115.4783         0.010000   
    176. D(B   4,B  10,B   6,B   7)     39.7832         0.010000   
    177. D(B  11,B  10,B   6,B   9)     57.8854         0.010000   
    178. D(B  11,B  10,B   6,B   7)    -17.8098         0.010000   
    179. D(B   4,B  10,B   5,B   1)    169.6882         0.010000   
    180. D(B   4,B  10,B   5,B   2)    -48.6113         0.010000   
    181. D(B   4,B  10,B   5,B  11)    -53.8021         0.010000   
    182. D(B   6,B  10,B   5,B   1)   -100.7161         0.010000   
    183. D(B   6,B  10,B   5,B   2)     40.9844         0.010000   
    184. D(B   6,B  10,B   5,B  11)     35.7936         0.010000   
    185. D(B  11,B  10,B   5,B   1)   -136.5097         0.010000   
    186. D(B  11,B  10,B   5,B   2)      5.1909         0.010000   
    187. D(B  11,B  10,B   6,B   4)    -57.5930         0.010000   
    188. D(B   9,B  10,B   4,B   3)   -105.9509         0.010000   
    189. D(B   9,B  10,B   1,B   0)      9.2113         0.010000   
    190. D(B   6,B  10,B   4,B   3)   -146.6690         0.010000   
    191. D(B   9,B  10,B   6,B   4)   -115.4783         0.010000   
    192. D(B   6,B  10,B   4,B   7)    -26.6065         0.010000   
    193. D(B  11,B  10,B   4,B   3)    -32.7699         0.010000   
    194. D(B  11,B  10,B   4,B   6)    113.8990         0.010000   
    195. D(B  11,B  10,B   9,B   7)    -78.4838         0.010000   
    196. D(B   6,B  10,B   4,B  11)   -113.8990         0.010000   
    197. D(B  11,B  10,B   4,B   7)     87.2925         0.010000   
    198. D(B   9,B  10,B   4,B   6)     40.7180         0.010000   
    199. D(B   4,B  10,B   1,B   5)   -161.8341         0.010000   
    200. D(B   4,B  10,B   1,B   0)     79.9644         0.010000   
    201. D(B   6,B  10,B   1,B   5)    173.5805         0.010000   
    202. D(B   9,B  10,B   4,B   7)     14.1115         0.010000   
    203. D(B   3,B  11,B   7,B   6)   -141.6106         0.010000   
    204. D(B   4,B  11,B   5,B   1)    102.7428         0.010000   
    205. D(B   4,B  11,B   5,B   2)   -104.0503         0.010000   
    206. D(B  10,B  11,B   5,B   1)     32.8149         0.010000   
    207. D(B  10,B  11,B   5,B   2)   -173.9781         0.010000   
    208. D(B   3,B  11,B   5,B   1)    162.9737         0.010000   
    209. D(B   3,B  11,B   5,B  10)    130.1588         0.010000   
    210. D(B   9,B  11,B   4,B   3)   -147.5758         0.010000   
    211. D(B   9,B  11,B   4,B   6)     26.3615         0.010000   
    212. D(B   9,B  11,B   4,B   7)     -6.2325         0.010000   
    213. D(B  10,B  11,B   4,B   3)    132.8556         0.010000   
    214. D(B  10,B  11,B   4,B   6)    -53.2072         0.010000   
    215. D(B  10,B  11,B   4,B   7)    -85.8011         0.010000   
    216. D(B   3,B  11,B   4,B  10)   -132.8556         0.010000   
    217. D(B   3,B  11,B   4,B   6)    173.9373         0.010000   
    218. D(B   3,B  11,B   4,B   7)    141.3433         0.010000   
    219. D(B   3,B  11,B   5,B   2)    -43.8194         0.010000   
    220. D(B   7,B  11,B   3,B   4)     28.7125         0.010000   
    221. D(B   7,B  11,B   3,B   2)   -152.8787         0.010000   
    222. D(B   9,B  11,B   3,B   4)     64.2885         0.010000   
    223. D(B   4,B  11,B   5,B  10)     69.9279         0.010000   
    224. D(B   9,B  11,B   3,B   2)   -117.3028         0.010000   
    225. D(B   4,B  11,B   3,B   2)    178.4087         0.010000   
    226. D(B  10,B  11,B   3,B   4)    -64.8628         0.010000   
    227. D(B   3,B  11,B   7,B   9)    152.5626         0.010000   
    228. D(B  10,B  11,B   3,B   2)    113.5459         0.010000   
    229. D(B   9,B  11,B  10,B   6)    -39.3992         0.014324   
    230. D(B   4,B  11,B  10,B   5)   -126.3271         0.014324   
    231. D(B   4,B  11,B  10,B   9)     96.9318         0.014324   
    232. D(B   4,B  11,B  10,B   6)     57.5325         0.014324   
    233. D(B   3,B  11,B  10,B   1)   -153.0175         0.014324   
    234. D(B   3,B  11,B  10,B   5)    -71.0220         0.014324   
    235. D(B   3,B  11,B  10,B   9)    152.2368         0.014324   
    236. D(B   3,B  11,B  10,B   4)     55.3051         0.014324   
    237. D(B   4,B  11,B   9,B   6)    -34.6931         0.010000   
    238. D(B   4,B  11,B   9,B   0)   -153.4641         0.010000   
    239. D(B  10,B  11,B   9,B   7)     91.4688         0.010000   
    240. D(B  10,B  11,B   9,B   6)     50.5563         0.010000   
    241. D(B  10,B  11,B   9,B   0)    -68.2146         0.010000   
    242. D(B   3,B  11,B   9,B  10)   -140.4826         0.010000   
    243. D(B   3,B  11,B  10,B   6)    112.8376         0.014324   
    244. D(B   3,B  11,B   9,B   7)    -49.0138         0.010000   
    245. D(B   3,B  11,B   9,B   6)    -89.9262         0.010000   
    246. D(B   3,B  11,B   9,B   0)    151.3028         0.010000   
    247. D(B   4,B  11,B   7,B   9)   -171.6926         0.010000   
    248. D(B   4,B  11,B   7,B   6)   -105.8657         0.010000   
    249. D(B  10,B  11,B   7,B   4)     90.1243         0.010000   
    250. D(B  10,B  11,B   7,B   9)    -81.5683         0.010000   
    251. D(B   4,B  11,B  10,B   1)    151.6774         0.014324   
    252. D(B  10,B  11,B   7,B   6)    -15.7414         0.010000   
    253. D(B   3,B  11,B   7,B   4)    -35.7448         0.010000   
    -----------------------------------------------------------------

Number of atoms                         .... 12
Number of degrees of freedom            .... 253


         *************************************************************
         *                GEOMETRY OPTIMIZATION CYCLE   1            *
         *************************************************************
---------------------------------
CARTESIAN COORDINATES (ANGSTROEM)
---------------------------------
  B    -0.377976    1.457867   -3.166486
  B     2.980033   -0.274280   -2.452348
  B     0.501787    1.499451    2.870333
  B    -0.495711   -0.144786    2.869895
  B    -1.504560   -2.377101    1.425961
  B     2.347330    0.377922    1.575161
  B    -1.025608   -1.930558   -2.009550
  B    -2.508429   -1.506316   -0.965312
  B     0.266186    2.741296    1.187262
  B    -1.231841    0.716138   -2.310312
  B     1.011423   -0.719053    0.073053
  B     0.037366    0.159420    0.902342

----------------------------
CARTESIAN COORDINATES (A.U.)
----------------------------
  NO LB    ZA    FRAG    MASS        X           Y           Z
   0 B   5.0000    0    10.810   -0.714272    2.754969   -5.983791
   1 B   5.0000    0    10.810    5.631446   -0.518314   -4.634266
   2 B   5.0000    0    10.810    0.948240    2.833553    5.424143
   3 B   5.0000    0    10.810   -0.936759   -0.273607    5.423316
   4 B   5.0000    0    10.810   -2.843206   -4.492070    2.694676
   5 B   5.0000    0    10.810    4.435811    0.714170    2.976624
   6 B   5.0000    0    10.810   -1.938119   -3.648226   -3.797500
   7 B   5.0000    0    10.810   -4.740244   -2.846525   -1.824175
   8 B   5.0000    0    10.810    0.503018    5.180300    2.243600
   9 B   5.0000    0    10.810   -2.327842    1.353304   -4.365856
  10 B   5.0000    0    10.810    1.911312   -1.358813    0.138050
  11 B   5.0000    0    10.810    0.070612    0.301259    1.705179

      -----------------------------------------------------------      
     |                   =====================                   |     
     |                           x T B                           |     
     |                   =====================                   |     
     |                         S. Grimme                         |     
     |          Mulliken Center for Theoretical Chemistry        |     
     |                    University of Bonn                     |     
      -----------------------------------------------------------      

   * xtb version 6.6.1 (unknown) compiled by 'builduser@buildhost' on 2023-08-07

   xtb is free software: you can redistribute it and/or modify it under
   the terms of the GNU Lesser General Public License as published by
   the Free Software Foundation, either version 3 of the License, or
   (at your option) any later version.
   
   xtb is distributed in the hope that it will be useful,
   but WITHOUT ANY WARRANTY; without even the implied warranty of
   MERCHANTABILITY or FITNESS FOR A PARTICULAR PURPOSE.  See the
   GNU Lesser General Public License for more details.
   
   Cite this work as:
   * C. Bannwarth, E. Caldeweyher, S. Ehlert, A. Hansen, P. Pracht,
     J. Seibert, S. Spicher, S. Grimme, WIREs Comput. Mol. Sci., 2020, 11,
     e01493. DOI: 10.1002/wcms.1493
   
   for GFN2-xTB:
   * C. Bannwarth, S. Ehlert and S. Grimme., J. Chem. Theory Comput., 2019,
     15, 1652-1671. DOI: 10.1021/acs.jctc.8b01176
   for GFN1-xTB:
   * S. Grimme, C. Bannwarth, P. Shushkov, J. Chem. Theory Comput., 2017,
     13, 1989-2009. DOI: 10.1021/acs.jctc.7b00118
   for GFN0-xTB:
   * P. Pracht, E. Caldeweyher, S. Ehlert, S. Grimme, ChemRxiv, 2019, preprint.
     DOI: 10.26434/chemrxiv.8326202.v1
   for GFN-FF:
   * S. Spicher and S. Grimme, Angew. Chem. Int. Ed., 2020, 59, 15665-15673.
     DOI: 10.1002/anie.202004239
   
   for ALPB and GBSA implicit solvation:
   * S. Ehlert, M. Stahn, S. Spicher, S. Grimme, J. Chem. Theory Comput.,
     2021, 17, 4250-4261. DOI: 10.1021/acs.jctc.1c00471
   
   for DFT-D4:
   * E. Caldeweyher, C. Bannwarth and S. Grimme, J. Chem. Phys., 2017,
     147, 034112. DOI: 10.1063/1.4993215
   * E. Caldeweyher, S. Ehlert, A. Hansen, H. Neugebauer, S. Spicher,
     C. Bannwarth and S. Grimme, J. Chem. Phys., 2019, 150, 154122.
     DOI: 10.1063/1.5090222
   * E. Caldeweyher, J.-M. Mewes, S. Ehlert and S. Grimme, Phys. Chem. Chem. Phys.
     2020, 22, 8499-8512. DOI: 10.1039/D0CP00502A
   
   for sTDA-xTB:
   * S. Grimme and C. Bannwarth, J. Chem. Phys., 2016, 145, 054103.
     DOI: 10.1063/1.4959605
   
   in the mass-spec context:
   * V. Asgeirsson, C. Bauer and S. Grimme, Chem. Sci., 2017, 8, 4879.
     DOI: 10.1039/c7sc00601b
   * J. Koopman and S. Grimme, ACS Omega 2019, 4, 12, 15120-15133.
     DOI: 10.1021/acsomega.9b02011
   
   for metadynamics refer to:
   * S. Grimme, J. Chem. Theory Comput., 2019, 155, 2847-2862
     DOI: 10.1021/acs.jctc.9b00143
   
   for SPH calculations refer to:
   * S. Spicher and S. Grimme, J. Chem. Theory Comput., 2021, 17, 1701-1714
     DOI: 10.1021/acs.jctc.0c01306
   
   with help from (in alphabetical order)
   P. Atkinson, C. Bannwarth, F. Bohle, G. Brandenburg, E. Caldeweyher
   M. Checinski, S. Dohm, S. Ehlert, S. Ehrlich, I. Gerasimov, C. Hölzer
   A. Katbashev, J. Koopman, C. Lavigne, S. Lehtola, F. März, M. Müller,
   F. Musil, H. Neugebauer, J. Pisarek, C. Plett, P. Pracht, F. Pultar,
   J. Seibert, P. Shushkov, S. Spicher, M. Stahn, M. Steiner, T. Strunk,
   J. Stückrath, T. Rose, and J. Unsleber
   
 * started run on 2026/04/17 at 12:14:10.810     

           -------------------------------------------------
          |                Calculation Setup                |
           -------------------------------------------------

          program call               : /usr/bin/xtb random_d1.90_001_m1_XTB.xyz --grad -c 0 -u 0 -P 1 --namespace random_d1.90_001_m1 --input random_d1.90_001_m1_XTB.input.tmp --acc 0.200000
          calculation namespace      : random_d1.90_001_m1
          coordinate file            : random_d1.90_001_m1_XTB.xyz
          omp threads                :                     1

   ID    Z sym.   atoms
    1    5 B      1-12

molecular fragmentation (1/2 indicates fragments):
122222222122
# atoms in fragment 1/2:     2    10
 fragment masses (1/2) :       21.62      108.11
CMA distance (Bohr)    :   6.926
constraining FC (au)   :  0.0500

           -------------------------------------------------
          |                 G F N 2 - x T B                 |
           -------------------------------------------------

        Reference                      10.1021/acs.jctc.8b01176
      * Hamiltonian:
        H0-scaling (s, p, d)           1.850000    2.230000    2.230000
        zeta-weighting                 0.500000
      * Dispersion:
        s8                             2.700000
        a1                             0.520000
        a2                             5.000000
        s9                             5.000000
      * Repulsion:
        kExp                           1.500000    1.000000
        rExp                           1.000000
      * Coulomb:
        alpha                          2.000000
        third order                    shell-resolved
        anisotropic                    true
        a3                             3.000000
        a5                             4.000000
        cn-shift                       1.200000
        cn-exp                         4.000000
        max-rad                        5.000000


          ...................................................
          :                      SETUP                      :
          :.................................................:
          :  # basis functions                  48          :
          :  # atomic orbitals                  48          :
          :  # shells                           24          :
          :  # electrons                        36          :
          :  max. iterations                   250          :
          :  Hamiltonian                  GFN2-xTB          :
          :  restarted?                      false          :
          :  GBSA solvation                  false          :
          :  PC potential                    false          :
          :  electronic temp.          300.0000000     K    :
          :  accuracy                    0.2000000          :
          :  -> integral cutoff          0.3198970E+02      :
          :  -> integral neglect         0.2000000E-08      :
          :  -> SCF convergence          0.2000000E-06 Eh   :
          :  -> wf. convergence          0.2000000E-04 e    :
          :  Broyden damping             0.4000000          :
          ...................................................

 iter      E             dE          RMSdq      gap      omega  full diag
   1    -12.3391746 -0.123392E+02  0.194E+01    0.15       0.0  T
   2      7.9095251  0.202487E+02  0.267E+01    0.50       1.0  T
   3      5.5561324 -0.235339E+01  0.241E+01    0.18       1.0  T
   4     13.1239973  0.756786E+01  0.250E+01    0.07       1.0  T
   5     -3.8709254 -0.169949E+02  0.174E+01    0.36       1.0  T
   6      7.7445441  0.116155E+02  0.229E+01    0.60       1.0  T
   7     -4.7304323 -0.124750E+02  0.156E+01    0.11       1.0  T
   8     -7.5721250 -0.284169E+01  0.142E+01    0.15       1.0  T
   9     -7.8699467 -0.297822E+00  0.134E+01    0.12       1.0  T
  10    -10.2402002 -0.237025E+01  0.109E+01    0.12       1.0  T
  11    -11.4112469 -0.117105E+01  0.966E+00    0.14       1.0  T
  12    -11.5342390 -0.122992E+00  0.955E+00    0.46       1.0  T
  13    -11.9051371 -0.370898E+00  0.874E+00    0.37       1.0  T
  14    -11.8737642  0.313728E-01  0.867E+00    0.43       1.0  T
  15    -11.9282888 -0.545246E-01  0.859E+00    0.43       1.0  T
  16    -11.9873453 -0.590565E-01  0.799E+00    0.38       1.0  T
  17    -12.0704101 -0.830648E-01  0.781E+00    0.41       1.0  T
  18    -12.0666308  0.377929E-02  0.783E+00    0.41       1.0  T
  19    -12.2312558 -0.164625E+00  0.670E+00    0.23       1.0  T
  20    -12.2812938 -0.500380E-01  0.633E+00    0.33       1.0  T
  21    -12.6806141 -0.399320E+00  0.450E+00    0.15       1.0  T
  22    -12.5022179  0.178396E+00  0.534E+00    0.22       1.0  T
  23    -12.4952789  0.693896E-02  0.545E+00    0.29       1.0  T
  24    -12.4708169  0.244620E-01  0.535E+00    0.26       1.0  T
  25     -8.7547307  0.371609E+01  0.123E+01    0.07       1.0  T
  26     -8.9067383 -0.152008E+00  0.121E+01    0.07       1.0  T
  27     -9.3494262 -0.442688E+00  0.114E+01    0.05       1.0  T
  28     -9.3052773  0.441489E-01  0.114E+01    0.05       1.0  T
  29     -8.3369939  0.968283E+00  0.130E+01    0.09       1.0  T
  30     -8.0849676  0.252026E+00  0.135E+01    0.12       1.0  T
  31     -8.0250742  0.598934E-01  0.135E+01    0.12       1.0  T
  32    -11.6289589 -0.360388E+01  0.792E+00    0.09       1.0  T
  33    -12.4100365 -0.781078E+00  0.618E+00    0.06       1.0  T
  34    -12.0786229  0.331414E+00  0.684E+00    0.06       1.0  T
  35    -12.1110677 -0.324448E-01  0.682E+00    0.06       1.0  T
  36     -8.0222226  0.408885E+01  0.134E+01    0.10       1.0  T
  37    -11.2213249 -0.319910E+01  0.819E+00    0.07       1.0  T
  38    -10.7042106  0.517114E+00  0.899E+00    0.05       1.0  T
  39    -10.1789125  0.525298E+00  0.987E+00    0.05       1.0  T
  40    -12.2941779 -0.211527E+01  0.555E+00    0.06       1.0  T
  41    -12.9713346 -0.677157E+00  0.166E+00    0.06       1.0  T
  42    -12.8803659  0.909687E-01  0.267E+00    0.11       1.0  T
  43    -12.8781655  0.220048E-02  0.267E+00    0.11       1.0  T
  44    -12.8531050  0.250605E-01  0.284E+00    0.13       1.0  T
  45    -12.8317899  0.213151E-01  0.293E+00    0.14       1.0  T
  46    -12.8472758 -0.154859E-01  0.284E+00    0.13       1.0  T
  47    -12.9053527 -0.580769E-01  0.241E+00    0.10       1.0  T
  48    -12.8941453  0.112074E-01  0.264E+00    0.10       1.0  T
  49    -12.7752181  0.118927E+00  0.325E+00    0.18       1.0  T
  50    -12.9192511 -0.144033E+00  0.190E+00    0.12       1.0  T
  51    -12.8891196  0.301314E-01  0.235E+00    0.13       1.0  T
  52    -12.9529782 -0.638586E-01  0.144E+00    0.10       1.0  T
  53    -12.8605052  0.924730E-01  0.232E+00    0.14       1.0  T
  54    -12.8755955 -0.150904E-01  0.212E+00    0.14       1.0  T
  55    -12.8604298  0.151658E-01  0.216E+00    0.15       1.0  T
  56    -12.9145459 -0.541161E-01  0.163E+00    0.12       1.0  T
  57    -12.9637276 -0.491817E-01  0.109E+00    0.10       1.0  T
  58    -12.9789711 -0.152435E-01  0.852E-01    0.09       1.0  T
  59    -12.9889012 -0.993010E-02  0.694E-01    0.08       1.0  T
  60    -12.9587446  0.301566E-01  0.109E+00    0.10       1.0  T
  61    -12.9726384 -0.138938E-01  0.865E-01    0.09       1.0  T
  62    -12.9860536 -0.134152E-01  0.651E-01    0.08       1.0  T
  63    -12.9909399 -0.488633E-02  0.584E-01    0.08       1.0  T
  64    -12.9946779 -0.373793E-02  0.576E-01    0.07       1.0  T
  65    -12.9950784 -0.400555E-03  0.533E-01    0.07       1.0  T
  66    -12.9936263  0.145207E-02  0.445E-01    0.07       1.0  T
  67    -12.9943124 -0.686099E-03  0.423E-01    0.07       1.0  T
  68    -12.9963322 -0.201972E-02  0.422E-01    0.07       1.0  T
  69    -12.9962716  0.605569E-04  0.403E-01    0.07       1.0  T
  70    -12.9963539 -0.822992E-04  0.396E-01    0.07       1.0  T
  71    -12.9963011  0.527995E-04  0.374E-01    0.07       1.0  T
  72    -12.9945749  0.172621E-02  0.336E-01    0.07       1.0  T
  73    -12.9947889 -0.214035E-03  0.332E-01    0.07       1.0  T
  74    -12.9958401 -0.105120E-02  0.318E-01    0.07       1.0  T
  75    -12.9955145  0.325575E-03  0.306E-01    0.07       1.0  T
  76    -12.9954332  0.813122E-04  0.294E-01    0.07       1.0  T
  77    -12.9959300 -0.496778E-03  0.272E-01    0.07       1.0  T
  78    -12.9959784 -0.484146E-04  0.268E-01    0.07       1.0  T
  79    -12.9959393  0.390979E-04  0.256E-01    0.07       1.0  T
  80    -12.9961025 -0.163207E-03  0.240E-01    0.07       1.0  T
  81    -12.9962240 -0.121433E-03  0.224E-01    0.07       1.0  T
  82    -12.9961381  0.858612E-04  0.210E-01    0.07       1.0  T
  83    -12.9961451 -0.696837E-05  0.199E-01    0.07       1.0  T
  84    -12.9962791 -0.133973E-03  0.186E-01    0.06       1.0  T
  85    -12.9963264 -0.473702E-04  0.178E-01    0.06       1.0  T
  86    -12.9963119  0.144892E-04  0.173E-01    0.06       1.0  T
  87    -12.9963867 -0.747874E-04  0.167E-01    0.06       1.0  T
  88    -12.9964576 -0.708721E-04  0.160E-01    0.06       1.0  T
  89    -12.9964751 -0.175538E-04  0.153E-01    0.06       1.0  T
  90    -12.9965045 -0.293968E-04  0.144E-01    0.06       1.0  T
  91    -12.9965617 -0.572048E-04  0.133E-01    0.06       1.0  T
  92    -12.9965993 -0.375641E-04  0.123E-01    0.06       1.0  T
  93    -12.9966189 -0.196127E-04  0.114E-01    0.06       1.0  T
  94    -12.9966595 -0.405728E-04  0.101E-01    0.06       1.0  T
  95    -12.9967206 -0.611299E-04  0.826E-02    0.06       1.0  T
  96    -12.9967647 -0.440312E-04  0.638E-02    0.06       1.0  T
  97    -12.9967936 -0.289650E-04  0.472E-02    0.06       1.0  T
  98    -12.9968119 -0.183138E-04  0.333E-02    0.06       1.0  T
  99    -12.9968225 -0.105925E-04  0.219E-02    0.06       1.3  T
 100    -12.9968287 -0.612389E-05  0.115E-02    0.06       2.5  T
 101    -12.9968312 -0.249772E-05  0.159E-03    0.06      18.2  T
 102    -12.9968310  0.137968E-06  0.350E-03    0.06       8.3  T
 103    -12.9968312 -0.181548E-06  0.957E-04    0.06      30.2  T
 104    -12.9968312 -0.142505E-07  0.360E-04    0.06      80.3  T
 105    -12.9968312  0.882464E-09  0.296E-04    0.06      97.4  T
 106    -12.9968312  0.114070E-08  0.372E-04    0.06      77.5  T
 107    -12.9968312 -0.259151E-08  0.132E-04    0.06     218.9  T
 108    -12.9968312 -0.431955E-09  0.871E-05    0.06     331.4  T

   *** convergence criteria satisfied after 108 iterations ***

         #    Occupation            Energy/Eh            Energy/eV
      -------------------------------------------------------------
         1        2.0000           -0.4072240             -11.0811
       ...           ...                  ...                  ...
        12        2.0000           -0.2802071              -7.6248
        13        2.0000           -0.2748513              -7.4791
        14        2.0000           -0.2703603              -7.3569
        15        2.0000           -0.2659998              -7.2382
        16        1.9439           -0.2587214              -7.0402
        17        1.8604           -0.2578144              -7.0155
        18        1.6257           -0.2567491              -6.9865 (HOMO)
        19        0.5695           -0.2544788              -6.9247 (LUMO)
        20        0.0003           -0.2471049              -6.7241
        21        0.0001           -0.2453346              -6.6759
        22        0.0000           -0.2450156              -6.6672
        23        0.0000           -0.2421217              -6.5885
       ...           ...                  ...                  ...
        48                          1.2009687              32.6800
      -------------------------------------------------------------
                  HL-Gap            0.0022703 Eh            0.0618 eV
             Fermi-level           -0.2553537 Eh           -6.9485 eV

 SCC (total)                   0 d,  0 h,  0 min,  0.152 sec
 SCC setup                      ...        0 min,  0.000 sec (  0.079%)
 Dispersion                     ...        0 min,  0.000 sec (  0.076%)
 classical contributions        ...        0 min,  0.000 sec (  0.023%)
 integral evaluation            ...        0 min,  0.002 sec (  1.625%)
 iterations                     ...        0 min,  0.143 sec ( 94.344%)
 molecular gradient             ...        0 min,  0.006 sec (  3.688%)
 printout                       ...        0 min,  0.000 sec (  0.152%)

         :::::::::::::::::::::::::::::::::::::::::::::::::::::
         ::                     SUMMARY                     ::
         :::::::::::::::::::::::::::::::::::::::::::::::::::::
         :: total energy             -12.928898408156 Eh    ::
         :: gradient norm              0.257285233789 Eh/a0 ::
         :: HOMO-LUMO gap              0.061778698748 eV    ::
         ::.................................................::
         :: SCC energy               -12.996831211034 Eh    ::
         :: -> isotropic ES            0.053158460710 Eh    ::
         :: -> anisotropic ES          0.000115425421 Eh    ::
         :: -> anisotropic XC         -0.039041256577 Eh    ::
         :: -> dispersion             -0.022577916178 Eh    ::
         :: repulsion energy           0.067631862948 Eh    ::
         :: add. restraining           0.000000000000 Eh    ::
         :: total charge               0.000000000003 e     ::
         :::::::::::::::::::::::::::::::::::::::::::::::::::::


Property printout bound to 'properties.out'

           -------------------------------------------------
          | TOTAL ENERGY              -12.928898408156 Eh   |
          | GRADIENT NORM               0.257285233789 Eh/α |
          | HOMO-LUMO GAP               0.061778698748 eV   |
           -------------------------------------------------

------------------------------------------------------------------------
 * finished run on 2026/04/17 at 12:14:10.975     
------------------------------------------------------------------------
 total:
 * wall-time:     0 d,  0 h,  0 min,  0.164 sec
 *  cpu-time:     0 d,  0 h,  0 min,  0.164 sec
 * ratio c/w:     0.999 speedup
 SCF:
 * wall-time:     0 d,  0 h,  0 min,  0.152 sec
 *  cpu-time:     0 d,  0 h,  0 min,  0.152 sec
 * ratio c/w:     1.000 speedup


-------------------------   --------------------
FINAL SINGLE POINT ENERGY       -12.928898408160
-------------------------   --------------------


-------------
DIPOLE MOMENT
-------------
                                X             Y             Z
Total Dipole Moment    :     -0.28700      -0.38700      -0.42500
                        -----------------------------------------
Magnitude (a.u.)       :      0.64247
Magnitude (Debye)      :      1.63302


------------------
CARTESIAN GRADIENT
------------------

   1   B   :    0.000459982    0.005376540   -0.006339373
   2   B   :    0.016800643    0.000312853   -0.013636518
   3   B   :    0.023581629    0.047156211    0.077258845
   4   B   :   -0.044352022   -0.054664918    0.062216746
   5   B   :    0.001096845   -0.047285373    0.019944374
   6   B   :    0.068130254    0.009620636    0.017062258
   7   B   :    0.079397640   -0.059751215   -0.059369887
   8   B   :   -0.106001134    0.029156379    0.028091490
   9   B   :   -0.007377799    0.059024119   -0.055655147
  10   B   :   -0.004193959    0.040644129   -0.007055392
  11   B   :   -0.005586922   -0.052776752   -0.032429042
  12   B   :   -0.021955158    0.023187393   -0.030088355

Difference to translation invariance:
           :   -0.0000000000    0.0000000000    0.0000000000

Difference to rotation invariance:
           :   -0.0000000240   -0.0000000338   -0.0000000151

Norm of the Cartesian gradient     ...    0.2572852338
RMS gradient                       ...    0.0428808723
MAX gradient                       ...    0.1060011342
------------------------------------------------------------------------------
                         ORCA GEOMETRY RELAXATION STEP
------------------------------------------------------------------------------

Reading the OPT-File                    .... done
Getting information on internals        .... done
Copying old internal coords+grads       .... done
Making the new internal coordinates     .... (2022 redundants) done
Validating the new internal coordinates .... (2022 redundants) done
Calculating the B-matrix                .... done
Calculating the G,G- and P matrices     .... done
Transforming gradient to internals      .... done
Projecting the internal gradient        .... done
Number of atoms                         ....  12
Number of internal coordinates          .... 253
Current Energy                          ....   -12.928898408 Eh
Current gradient norm                   ....     0.257285234 Eh/bohr
Maximum allowed component of the step   ....  0.300
Current trust radius                    ....  0.300
Evaluating the initial hessian          ....  (Almloef) done
Projecting the Hessian                  .... done
Forming the augmented Hessian           .... done
Diagonalizing the augmented Hessian     .... done
Last element of RFO vector              ....  0.767653919
Lowest eigenvalues of augmented Hessian:
 -0.145065313  0.011064730  0.012542702  0.012769218  0.012894927
Length of the computed step             ....  0.834835339
Warning: the length of the step is outside the trust region - taking restricted step instead
The input lambda is                     ....     0.009988
   iter:   5  x=    0.001877  g=21564.069778 f(x)=    75.429654
   iter:  10  x=   -0.123010  g=   32.913095 f(x)=     1.780614
   iter:  15  x=   -0.514045  g=    0.349801 f(x)=     0.007989
The output lambda is                    ....    -0.515551 (19 iterations)
The final length of the internal step   ....  0.300000000
Converting the step to Cartesian space:
 Initial RMS(Int)=    0.0188608384
Transforming coordinates:
 Iter   0:  RMS(Cart)=    0.0571005096 RMS(Int)=    0.0188101427
done
Storing new coordinates                 .... done

                                .--------------------.
          ----------------------|Geometry convergence|-------------------------
          Item                value                   Tolerance       Converged
          ---------------------------------------------------------------------
          RMS gradient        0.0111150468            0.0000300000      NO
          MAX gradient        0.0801521147            0.0001000000      NO
          RMS step            0.0188608384            0.0006000000      NO
          MAX step            0.1391031352            0.0010000000      NO
          -------------------------------------------------------------------------
          ........................................................
          Max(Bonds)      0.0736      Max(Angles)    1.31
          Max(Dihed)        1.81      Max(Improp)    0.00
          ---------------------------------------------------------------------

The optimization has not yet converged - more geometry cycles are needed


    ---------------------------------------------------------------------------
                         Redundant Internal Coordinates
                            (Angstroem and degrees)

        Definition                    Value    dE/dq     Step     New-Value
    ----------------------------------------------------------------------------
     1. B(B   1,B   0)                3.8453  0.009837 -0.0092    3.8361   
     2. B(B   3,B   2)                1.9232  0.078526 -0.0671    1.8561   
     3. B(B   4,B   3)                2.8436  0.022168 -0.0214    2.8222   
     4. B(B   5,B   1)                4.1287  0.018133 -0.0172    4.1116   
     5. B(B   5,B   2)                2.5182  0.043690 -0.0418    2.4764   
     6. B(B   6,B   4)                3.4974  0.023860 -0.0213    3.4760   
     7. B(B   7,B   6)                1.8626  0.056151 -0.0482    1.8144   
     8. B(B   7,B   4)                2.7357  0.016168 -0.0162    2.7196   
     9. B(B   8,B   2)                2.1049  0.080152 -0.0736    2.0312   
    10. B(B   9,B   6)                2.6717  0.028018 -0.0271    2.6446   
    11. B(B   9,B   0)                1.4185  0.009096 -0.0039    1.4147   
    12. B(B   9,B   7)                2.8945  0.022996 -0.0220    2.8725   
    13. B(B  10,B   4)                3.3030  0.014868 -0.0143    3.2886   
    14. B(B  10,B   6)                3.1551  0.002396 -0.0036    3.1515   
    15. B(B  10,B   1)                3.2328  0.001190 -0.0026    3.2302   
    16. B(B  10,B   5)                2.2901  0.037719 -0.0355    2.2545   
    17. B(B  10,B   9)                3.5739  0.005541 -0.0056    3.5682   
    18. B(B  11,B   9)                3.4989  0.000390 -0.0014    3.4974   
    19. B(B  11,B   4)                3.0142  0.011310 -0.0123    3.0020   
    20. B(B  11,B  10)                1.5518  0.022660 -0.0168    1.5351   
    21. B(B  11,B   3)                2.0611  0.043628 -0.0401    2.0210   
    22. B(B  11,B   5)                2.4159  0.030645 -0.0291    2.3868   
    23. B(B  11,B   7)                3.5699  0.016330 -0.0157    3.5542   
    24. A(B   1,B   0,B   9)          100.25  0.001832   -0.23    100.03   
    25. A(B   0,B   1,B  10)           71.05 -0.000582    0.10     71.15   
    26. A(B   5,B   1,B  10)           33.53  0.004352   -0.45     33.08   
    27. A(B   0,B   1,B   5)           88.64 -0.000303   -0.00     88.63   
    28. A(B   3,B   2,B   8)          116.50  0.012700   -1.25    115.25   
    29. A(B   3,B   2,B   5)           89.96 -0.013906    1.31     91.27   
    30. A(B   5,B   2,B   8)           86.19  0.012283   -1.18     85.01   
    31. A(B   2,B   3,B   4)          148.79 -0.001581    0.06    148.85   
    32. A(B   2,B   3,B  11)           74.92  0.005135   -0.57     74.35   
    33. A(B   4,B   3,B  11)           73.91 -0.006749    0.64     74.55   
    34. A(B   6,B   4,B  11)           69.63 -0.000117    0.04     69.66   
    35. A(B  10,B   4,B  11)           27.96  0.002782   -0.19     27.77   
    36. A(B   7,B   4,B  11)           76.59 -0.000102    0.04     76.63   
    37. A(B   3,B   4,B   7)          108.91  0.003088   -0.25    108.66   
    38. A(B   3,B   4,B   6)          110.49  0.006537   -0.60    109.89   
    39. A(B   3,B   4,B  11)           41.07  0.006335   -0.61     40.46   
    40. A(B   6,B   4,B   7)           31.89  0.008409   -0.78     31.12   
    41. A(B   7,B   4,B  10)           76.21  0.002563   -0.21     76.00   
    42. A(B   6,B   4,B  10)           55.20 -0.002808    0.25     55.45   
    43. A(B   3,B   4,B  10)           62.85  0.007824   -0.70     62.15   
    44. A(B  10,B   5,B  11)           38.39  0.000181    0.10     38.49   
    45. A(B   1,B   5,B  11)           81.98 -0.002383    0.32     82.30   
    46. A(B   1,B   5,B   2)          133.19  0.006142   -0.51    132.68   
    47. A(B   1,B   5,B  10)           51.24 -0.002433    0.21     51.45   
    48. A(B   2,B   5,B  11)           58.85  0.012665   -1.20     57.66   
    49. A(B   2,B   5,B  10)           97.08  0.013036   -1.11     95.97   
    50. A(B   7,B   6,B   9)           77.06 -0.007375    0.69     77.75   
    51. A(B   4,B   6,B  10)           59.27  0.000047   -0.01     59.26   
    52. A(B   9,B   6,B  10)           75.15 -0.002489    0.28     75.43   
    53. A(B   4,B   6,B   9)          103.09 -0.005893    0.52    103.61   
    54. A(B   7,B   6,B  10)           93.24 -0.000810    0.08     93.32   
    55. A(B   4,B   6,B   7)           50.90  0.000846   -0.13     50.77   
    56. A(B   6,B   7,B   9)           64.10 -0.000720    0.03     64.13   
    57. A(B   4,B   7,B  11)           55.22 -0.000661    0.04     55.26   
    58. A(B   9,B   7,B  11)           64.55 -0.003851    0.38     64.93   
    59. A(B   4,B   7,B   9)          119.26 -0.005425    0.50    119.76   
    60. A(B   6,B   7,B  11)           80.32 -0.003836    0.38     80.70   
    61. A(B   4,B   7,B   6)           97.21 -0.009255    0.90     98.11   
    62. A(B   0,B   9,B   7)          161.34  0.002836   -0.28    161.06   
    63. A(B   6,B   9,B   7)           38.84  0.008095   -0.72     38.12   
    64. A(B  10,B   9,B  11)           25.32  0.003244   -0.25     25.07   
    65. A(B   7,B   9,B  10)           70.04  0.003298   -0.30     69.74   
    66. A(B   6,B   9,B  10)           58.58 -0.001765    0.16     58.74   
    67. A(B   0,B   9,B  10)          103.57 -0.002712    0.23    103.80   
    68. A(B   0,B   9,B   6)          122.65 -0.005158    0.43    123.08   
    69. A(B   7,B   9,B  11)           67.12  0.001253   -0.12     67.00   
    70. A(B   6,B   9,B  11)           73.20  0.001713   -0.12     73.08   
    71. A(B   0,B   9,B  11)          114.77 -0.001068    0.10    114.88   
    72. A(B   5,B  10,B   9)          127.68 -0.005429    0.45    128.13   
    73. A(B   5,B  10,B   6)          173.48 -0.000976   -0.01    173.47   
    74. A(B   4,B  10,B  11)           65.62 -0.001106    0.05     65.67   
    75. A(B   5,B  10,B  11)           75.20 -0.002971    0.22     75.42   
    76. A(B   4,B  10,B   9)           89.81  0.001117   -0.16     89.65   
    77. A(B   4,B  10,B   5)          114.59 -0.002637    0.22    114.81   
    78. A(B   6,B  10,B   9)           46.27  0.004254   -0.44     45.83   
    79. A(B   6,B  10,B  11)           99.49  0.002348   -0.25     99.24   
    80. A(B   9,B  10,B  11)           74.64 -0.002956    0.25     74.88   
    81. A(B   1,B  10,B   9)           78.81  0.002739   -0.22     78.59   
    82. A(B   1,B  10,B   4)          148.53  0.005217   -0.49    148.04   
    83. A(B   1,B  10,B   6)           86.01  0.001671   -0.18     85.82   
    84. A(B   1,B  10,B  11)          136.20 -0.001913    0.21    136.41   
    85. A(B   4,B  10,B   6)           65.53  0.002761   -0.24     65.29   
    86. A(B   1,B  10,B   5)           95.24 -0.001919    0.23     95.47   
    87. A(B   5,B  11,B   7)          150.43  0.005678   -0.61    149.83   
    88. A(B   5,B  11,B   9)          126.03 -0.000708    0.01    126.04   
    89. A(B   4,B  11,B   5)          121.12 -0.000234    0.02    121.15   
    90. A(B   5,B  11,B  10)           66.41  0.002790   -0.32     66.09   
    91. A(B   3,B  11,B   5)           89.70 -0.003136    0.33     90.03   
    92. A(B   3,B  11,B  10)          126.08 -0.001935    0.14    126.22   
    93. A(B   7,B  11,B   9)           48.33  0.002598   -0.26     48.07   
    94. A(B   4,B  11,B   7)           48.20  0.000763   -0.09     48.11   
    95. A(B   7,B  11,B  10)           84.49  0.002896   -0.29     84.20   
    96. A(B   3,B  11,B   7)          104.25 -0.000747    0.08    104.33   
    97. A(B   4,B  11,B   9)           96.19  0.002712   -0.29     95.90   
    98. A(B   4,B  11,B  10)           86.42 -0.001676    0.14     86.56   
    99. A(B   3,B  11,B   4)           65.02  0.000414   -0.03     64.99   
   100. A(B   9,B  11,B  10)           80.04 -0.000288    0.00     80.05   
   101. A(B   3,B  11,B   9)          143.73  0.003467   -0.29    143.43   
   102. D(B  10,B   1,B   0,B   9)    -23.71  0.002164   -0.21    -23.91   
   103. D(B   5,B   1,B   0,B   9)    -52.84 -0.002927    0.27    -52.57   
   104. D(B   4,B   3,B   2,B   8)     38.23  0.008606   -0.82     37.41   
   105. D(B  11,B   3,B   2,B   5)    -50.44  0.003687   -0.38    -50.81   
   106. D(B  11,B   3,B   2,B   8)     35.28  0.009982   -0.99     34.29   
   107. D(B   4,B   3,B   2,B   5)    -47.48  0.002311   -0.20    -47.69   
   108. D(B   7,B   4,B   3,B  11)    -39.96 -0.005027    0.50    -39.46   
   109. D(B  10,B   4,B   3,B   2)     19.76  0.002272   -0.20     19.56   
   110. D(B   6,B   4,B   3,B  11)     -6.07  0.004838   -0.41     -6.47   
   111. D(B   7,B   4,B   3,B   2)    -42.93 -0.003817    0.34    -42.59   
   112. D(B  11,B   4,B   3,B   2)     -2.97  0.001210   -0.16     -3.12   
   113. D(B   6,B   4,B   3,B   2)     -9.03  0.006049   -0.56     -9.60   
   114. D(B  10,B   5,B   2,B   3)     44.14 -0.003042    0.30     44.44   
   115. D(B  11,B   5,B   1,B   0)     30.92  0.002789   -0.21     30.70   
   116. D(B  11,B   5,B   2,B   8)    -68.66 -0.018701    1.81    -66.85   
   117. D(B  11,B   5,B   2,B   3)     47.90 -0.005344    0.50     48.41   
   118. D(B   2,B   5,B   1,B   0)     -1.03 -0.009938    0.93     -0.10   
   119. D(B  10,B   5,B   1,B   0)     56.49  0.003571   -0.23     56.26   
   120. D(B   1,B   5,B   2,B   3)     85.65  0.004274   -0.32     85.33   
   121. D(B  11,B   5,B   1,B  10)    -25.57 -0.000782    0.02    -25.55   
   122. D(B   2,B   5,B   1,B  10)    -57.52 -0.013509    1.16    -56.36   
   123. D(B  10,B   5,B   2,B   8)    -72.43 -0.016399    1.61    -70.81   
   124. D(B   7,B   6,B   4,B  11)    -97.38  0.004906   -0.48    -97.85   
   125. D(B   7,B   6,B   4,B   3)    -93.13  0.002068   -0.25    -93.38   
   126. D(B   9,B   6,B   4,B   3)    -32.16 -0.001964    0.14    -32.02   
   127. D(B   9,B   6,B   4,B   7)     60.97 -0.004031    0.38     61.35   
   128. D(B   9,B   6,B   4,B  11)    -36.41  0.000874   -0.10    -36.50   
   129. D(B   9,B   6,B   4,B  10)    -63.62 -0.001409    0.05    -63.57   
   130. D(B   7,B   6,B   4,B  10)   -124.59  0.002623   -0.33   -124.92   
   131. D(B   6,B   7,B   4,B  11)     72.89  0.002002   -0.19     72.70   
   132. D(B   6,B   7,B   4,B   3)     98.60  0.008402   -0.82     97.78   
   133. D(B   4,B   7,B   6,B   9)   -119.09  0.001488   -0.12   -119.21   
   134. D(B  11,B   7,B   6,B   9)    -66.31  0.002555   -0.24    -66.56   
   135. D(B  11,B   7,B   6,B   4)     52.78  0.001068   -0.13     52.66   
   136. D(B   4,B   7,B   6,B  10)    -45.14 -0.001799    0.23    -44.90   
   137. D(B   9,B   7,B   6,B  10)     73.96 -0.003287    0.35     74.31   
   138. D(B   9,B   7,B   4,B   3)     34.31  0.013722   -1.29     33.02   
   139. D(B   9,B   7,B   4,B   6)    -64.29  0.005320   -0.47    -64.76   
   140. D(B   9,B   7,B   4,B  11)      8.60  0.007321   -0.66      7.94   
   141. D(B   9,B   7,B   4,B  10)    -20.18  0.004571   -0.47    -20.66   
   142. D(B   9,B   7,B   6,B   4)    119.09 -0.001488    0.12    119.21   
   143. D(B   6,B   7,B   4,B  10)     44.11 -0.000749    0.00     44.11   
   144. D(B   0,B   9,B   7,B   4)     92.07 -0.006251    0.59     92.66   
   145. D(B  11,B   9,B   7,B   4)     -7.82 -0.006835    0.62     -7.20   
   146. D(B   6,B   9,B   7,B   4)     83.56 -0.009225    0.89     84.45   
   147. D(B   6,B   9,B   7,B  11)     91.38 -0.002390    0.27     91.64   
   148. D(B   0,B   9,B   7,B  11)     99.89  0.000584   -0.04     99.85   
   149. D(B   0,B   9,B   7,B   6)      8.51  0.002974   -0.30      8.21   
   150. D(B  11,B   9,B   6,B   4)     30.05  0.000104   -0.02     30.03   
   151. D(B  11,B   9,B   6,B   7)     74.17  0.000245   -0.06     74.11   
   152. D(B  11,B   9,B   7,B   6)    -91.38  0.002390   -0.27    -91.64   
   153. D(B   7,B   9,B   6,B  10)    -96.94 -0.001968    0.19    -96.75   
   154. D(B   0,B   9,B   6,B  10)     86.28 -0.001508    0.14     86.42   
   155. D(B   0,B   9,B   6,B   4)    139.10  0.000320   -0.00    139.09   
   156. D(B   7,B   9,B   0,B   1)    -46.77 -0.002051    0.22    -46.55   
   157. D(B  11,B   9,B   0,B   1)     44.84  0.000292    0.02     44.86   
   158. D(B  10,B   9,B   0,B   1)     20.72 -0.002424    0.23     20.95   
   159. D(B   6,B   9,B   0,B   1)    -40.44  0.000902   -0.07    -40.51   
   160. D(B   7,B   9,B   6,B   4)    -44.13 -0.000140    0.05    -44.08   
   161. D(B   0,B   9,B   6,B   7)   -176.78  0.000460   -0.05   -176.83   
   162. D(B  11,B  10,B   1,B   0)    -44.17 -0.001209    0.18    -44.00   
   163. D(B  11,B  10,B   1,B   5)     74.03 -0.005978    0.53     74.55   
   164. D(B   6,B  10,B   1,B   0)     55.38  0.003740   -0.35     55.03   
   165. D(B   4,B  10,B   9,B   7)    -13.77  0.001878   -0.20    -13.97   
   166. D(B   4,B  10,B   9,B   6)    -55.25 -0.005740    0.47    -54.78   
   167. D(B   4,B  10,B   9,B   0)   -175.44 -0.001352    0.11   -175.33   
   168. D(B   6,B  10,B   9,B  11)    119.96  0.003874   -0.34    119.62   
   169. D(B   6,B  10,B   9,B   7)     41.48  0.007618   -0.67     40.81   
   170. D(B   6,B  10,B   9,B   0)   -120.19  0.004387   -0.36   -120.55   
   171. D(B  11,B  10,B   9,B   6)   -119.96 -0.003874    0.34   -119.62   
   172. D(B  11,B  10,B   9,B   0)    119.85  0.000513   -0.03    119.82   
   173. D(B   5,B  10,B   6,B   7)    -52.79  0.001080   -0.10    -52.89   
   174. D(B   9,B  10,B   6,B   7)    -75.70  0.007766   -0.73    -76.43   
   175. D(B   4,B  10,B   6,B   9)    115.48 -0.005726    0.46    115.94   
   176. D(B   4,B  10,B   6,B   7)     39.78  0.002040   -0.27     39.51   
   177. D(B  11,B  10,B   6,B   9)     57.89 -0.004226    0.35     58.24   
   178. D(B  11,B  10,B   6,B   7)    -17.81  0.003540   -0.38    -18.19   
   179. D(B   4,B  10,B   5,B   1)    169.69  0.002948   -0.21    169.48   
   180. D(B   4,B  10,B   5,B   2)    -48.61 -0.000570    0.10    -48.51   
   181. D(B   4,B  10,B   5,B  11)    -53.80  0.001933   -0.09    -53.90   
   182. D(B   6,B  10,B   5,B   1)   -100.72  0.003833   -0.42   -101.14   
   183. D(B   6,B  10,B   5,B   2)     40.98  0.000315   -0.11     40.88   
   184. D(B   6,B  10,B   5,B  11)     35.79  0.002819   -0.31     35.49   
   185. D(B  11,B  10,B   5,B   1)   -136.51  0.001014   -0.12   -136.63   
   186. D(B  11,B  10,B   5,B   2)      5.19 -0.002503    0.20      5.39   
   187. D(B  11,B  10,B   6,B   4)    -57.59  0.001500   -0.11    -57.70   
   188. D(B   9,B  10,B   4,B   3)   -105.95  0.001006   -0.08   -106.03   
   189. D(B   9,B  10,B   1,B   0)      9.21 -0.000523    0.08      9.29   
   190. D(B   6,B  10,B   4,B   3)   -146.67 -0.004841    0.47   -146.20   
   191. D(B   9,B  10,B   6,B   4)   -115.48  0.005726   -0.46   -115.94   
   192. D(B   6,B  10,B   4,B   7)    -26.61 -0.007360    0.71    -25.89   
   193. D(B  11,B  10,B   4,B   3)    -32.77 -0.002938    0.28    -32.49   
   194. D(B  11,B  10,B   4,B   6)    113.90  0.001903   -0.20    113.70   
   195. D(B  11,B  10,B   9,B   7)    -78.48  0.003744   -0.33    -78.82   
   196. D(B   6,B  10,B   4,B  11)   -113.90 -0.001903    0.20   -113.70   
   197. D(B  11,B  10,B   4,B   7)     87.29 -0.005456    0.52     87.81   
   198. D(B   9,B  10,B   4,B   6)     40.72  0.005848   -0.55     40.17   
   199. D(B   4,B  10,B   1,B   5)   -161.83 -0.002123    0.08   -161.75   
   200. D(B   4,B  10,B   1,B   0)     79.96  0.002646   -0.26     79.70   
   201. D(B   6,B  10,B   1,B   5)    173.58 -0.001030   -0.00    173.58   
   202. D(B   9,B  10,B   4,B   7)     14.11 -0.001512    0.16     14.28   
   203. D(B   3,B  11,B   7,B   6)   -141.61  0.005010   -0.47   -142.08   
   204. D(B   4,B  11,B   5,B   1)    102.74 -0.000224   -0.09    102.66   
   205. D(B   4,B  11,B   5,B   2)   -104.05 -0.003756    0.23   -103.82   
   206. D(B  10,B  11,B   5,B   1)     32.81 -0.000354    0.00     32.82   
   207. D(B  10,B  11,B   5,B   2)   -173.98 -0.003885    0.32   -173.66   
   208. D(B   3,B  11,B   5,B   1)    162.97 -0.001827    0.10    163.07   
   209. D(B   3,B  11,B   5,B  10)    130.16 -0.001474    0.10    130.25   
   210. D(B   9,B  11,B   4,B   3)   -147.58 -0.002131    0.14   -147.43   
   211. D(B   9,B  11,B   4,B   6)     26.36  0.002958   -0.29     26.07   
   212. D(B   9,B  11,B   4,B   7)     -6.23 -0.006103    0.56     -5.68   
   213. D(B  10,B  11,B   4,B   3)    132.86 -0.001410    0.10    132.95   
   214. D(B  10,B  11,B   4,B   6)    -53.21  0.003680   -0.33    -53.54   
   215. D(B  10,B  11,B   4,B   7)    -85.80 -0.005382    0.51    -85.29   
   216. D(B   3,B  11,B   4,B  10)   -132.86  0.001410   -0.10   -132.95   
   217. D(B   3,B  11,B   4,B   6)    173.94  0.005089   -0.43    173.51   
   218. D(B   3,B  11,B   4,B   7)    141.34 -0.003972    0.42    141.76   
   219. D(B   3,B  11,B   5,B   2)    -43.82 -0.005359    0.41    -43.40   
   220. D(B   7,B  11,B   3,B   4)     28.71  0.002990   -0.32     28.40   
   221. D(B   7,B  11,B   3,B   2)   -152.88  0.003605   -0.40   -153.28   
   222. D(B   9,B  11,B   3,B   4)     64.29  0.002232   -0.30     63.99   
   223. D(B   4,B  11,B   5,B  10)     69.93  0.000129   -0.09     69.84   
   224. D(B   9,B  11,B   3,B   2)   -117.30  0.002847   -0.39   -117.69   
   225. D(B   4,B  11,B   3,B   2)    178.41  0.000615   -0.09    178.32   
   226. D(B  10,B  11,B   3,B   4)    -64.86  0.000440   -0.05    -64.92   
   227. D(B   3,B  11,B   7,B   9)    152.56  0.004203   -0.34    152.23   
   228. D(B  10,B  11,B   3,B   2)    113.55  0.001055   -0.14    113.41   
   229. D(B   9,B  11,B  10,B   6)    -39.40 -0.001831    0.22    -39.18   
   230. D(B   4,B  11,B  10,B   5)   -126.33  0.000399   -0.08   -126.40   
   231. D(B   4,B  11,B  10,B   9)     96.93  0.003096   -0.32     96.61   
   232. D(B   4,B  11,B  10,B   6)     57.53  0.001266   -0.10     57.43   
   233. D(B   3,B  11,B  10,B   1)   -153.02  0.005864   -0.58   -153.60   
   234. D(B   3,B  11,B  10,B   5)    -71.02  0.000531   -0.07    -71.10   
   235. D(B   3,B  11,B  10,B   9)    152.24  0.003228   -0.32    151.92   
   236. D(B   3,B  11,B  10,B   4)     55.31  0.000132    0.00     55.31   
   237. D(B   4,B  11,B   9,B   6)    -34.69 -0.002402    0.21    -34.49   
   238. D(B   4,B  11,B   9,B   0)   -153.46  0.002584   -0.22   -153.68   
   239. D(B  10,B  11,B   9,B   7)     91.47  0.003661   -0.34     91.13   
   240. D(B  10,B  11,B   9,B   6)     50.56 -0.004654    0.40     50.96   
   241. D(B  10,B  11,B   9,B   0)    -68.21  0.000332   -0.02    -68.24   
   242. D(B   3,B  11,B   9,B  10)   -140.48  0.000001    0.08   -140.40   
   243. D(B   3,B  11,B  10,B   6)    112.84  0.001398   -0.10    112.74   
   244. D(B   3,B  11,B   9,B   7)    -49.01  0.003662   -0.26    -49.28   
   245. D(B   3,B  11,B   9,B   6)    -89.93 -0.004652    0.48    -89.44   
   246. D(B   3,B  11,B   9,B   0)    151.30  0.000333    0.06    151.36   
   247. D(B   4,B  11,B   7,B   9)   -171.69  0.007780   -0.71   -172.40   
   248. D(B   4,B  11,B   7,B   6)   -105.87  0.008587   -0.84   -106.70   
   249. D(B  10,B  11,B   7,B   4)     90.12 -0.004919    0.45     90.58   
   250. D(B  10,B  11,B   7,B   9)    -81.57  0.002861   -0.25    -81.82   
   251. D(B   4,B  11,B  10,B   1)    151.68  0.005732   -0.58    151.10   
   252. D(B  10,B  11,B   7,B   6)    -15.74  0.003667   -0.39    -16.13   
   253. D(B   3,B  11,B   7,B   4)    -35.74 -0.003577    0.37    -35.38   
    ----------------------------------------------------------------------------

Geometry step timings:
Preparation and reading OPT file:      0.000 s ( 0.159 %)
Internal coordinates            :      0.000 s ( 0.244 %)
B/P matrices and projection     :      0.004 s (15.873 %)
Hessian update/contruction      :      0.004 s (18.197 %)
Making the step                 :      0.014 s (55.185 %)
Converting the step to Cartesian:      0.000 s ( 1.897 %)
Storing new data                :      0.000 s ( 0.407 %)
Checking convergence            :      0.000 s ( 0.497 %)
Final printing                  :      0.002 s ( 7.538 %)
Total time                      :      0.025 s

Time for energy+gradient        :      0.175 s
Time for complete geometry iter :      0.201 s

         *************************************************************
         *                GEOMETRY OPTIMIZATION CYCLE   2            *
         *************************************************************
---------------------------------
CARTESIAN COORDINATES (ANGSTROEM)
---------------------------------
  B    -0.381080    1.459509   -3.157881
  B     2.969533   -0.264027   -2.437670
  B     0.485332    1.464493    2.823896
  B    -0.485355   -0.117660    2.840329
  B    -1.497639   -2.345127    1.433595
  B     2.329326    0.385267    1.571519
  B    -1.031248   -1.898091   -1.981776
  B    -2.473613   -1.493532   -0.957842
  B     0.257825    2.604240    1.158011
  B    -1.227991    0.720031   -2.299260
  B     1.010029   -0.692040    0.094399
  B     0.044882    0.176938    0.912679

----------------------------
CARTESIAN COORDINATES (A.U.)
----------------------------
  NO LB    ZA    FRAG    MASS        X           Y           Z
   0 B   5.0000    0    10.810   -0.720138    2.758072   -5.967530
   1 B   5.0000    0    10.810    5.611604   -0.498938   -4.606529
   2 B   5.0000    0    10.810    0.917144    2.767491    5.336391
   3 B   5.0000    0    10.810   -0.917187   -0.222345    5.367444
   4 B   5.0000    0    10.810   -2.830128   -4.431648    2.709102
   5 B   5.0000    0    10.810    4.401788    0.728049    2.969741
   6 B   5.0000    0    10.810   -1.948777   -3.586873   -3.745014
   7 B   5.0000    0    10.810   -4.674451   -2.822367   -1.810060
[...]

Difference to rotation invariance:
           :   -0.0000000673   -0.0000000179   -0.0000000251

Norm of the Cartesian gradient     ...    0.0408312723
RMS gradient                       ...    0.0068052121
MAX gradient                       ...    0.0187663109
------------------------------------------------------------------------------
                         ORCA GEOMETRY RELAXATION STEP
------------------------------------------------------------------------------

Reading the OPT-File                    .... done
Getting information on internals        .... done
Copying old internal coords+grads       .... done
Making the new internal coordinates     .... (2022 redundants) done
Validating the new internal coordinates .... (2022 redundants) done
Calculating the B-matrix                .... done
Calculating the G,G- and P matrices     .... done
Transforming gradient to internals      .... done
Projecting the internal gradient        .... done
Number of atoms                         ....  12
Number of internal coordinates          .... 138
Current Energy                          ....   -14.196123787 Eh
Current gradient norm                   ....     0.040831272 Eh/bohr
Maximum allowed component of the step   ....  0.300
Current trust radius                    ....  0.467
Updating the Hessian (BFGS)             .... done
Forming the augmented Hessian           .... done
Diagonalizing the augmented Hessian     .... done
Last element of RFO vector              ....  0.927096939
Lowest eigenvalues of augmented Hessian:
 -0.003189884  0.000399095  0.000840513  0.001177863  0.003143568
Length of the computed step             ....  0.404296066
The final length of the internal step   ....  0.404296066
Converting the step to Cartesian space:
 Initial RMS(Int)=    0.0344159667
Transforming coordinates:
 Iter   0:  RMS(Cart)=    0.0385338721 RMS(Int)=    1.0670587999
 Iter   5:  RMS(Cart)=    0.0000001352 RMS(Int)=    0.0000004679
done
Storing new coordinates                 .... done
The predicted energy change is          ....    -0.001855644
Previously predicted energy change      ....    -0.001271835
Actually observed energy change         ....     0.000349044
Ratio of predicted to observed change   ....     0.274441127
New trust radius                        ....     0.311111111

                                .--------------------.
          ----------------------|Geometry convergence|-------------------------
          Item                value                   Tolerance       Converged
          ---------------------------------------------------------------------
          Energy change       0.0003490438            0.0000010000      NO
          RMS gradient        0.0023199530            0.0000300000      NO
          MAX gradient        0.0169632575            0.0001000000      NO
          RMS step            0.0344159667            0.0006000000      NO
          MAX step            0.1347832490            0.0010000000      NO
          -------------------------------------------------------------------------
          ........................................................
          Max(Bonds)      0.0491      Max(Angles)    3.35
          Max(Dihed)        7.72      Max(Improp)    0.00
          ---------------------------------------------------------------------

The optimization has not yet converged - more geometry cycles are needed


    ---------------------------------------------------------------------------
                         Redundant Internal Coordinates
                            (Angstroem and degrees)

        Definition                    Value    dE/dq     Step     New-Value
    ----------------------------------------------------------------------------
     1. B(B   3,B   2)                1.5018 -0.009920  0.0165    1.5183   
     2. B(B   4,B   3)                1.5167  0.003777  0.0088    1.5255   
     3. B(B   6,B   1)                1.6504 -0.000588  0.0025    1.6528   
     4. B(B   7,B   4)                1.5101  0.002855 -0.0102    1.4998   
     5. B(B   7,B   6)                1.5038 -0.016963  0.0211    1.5249   
     6. B(B   8,B   5)                1.5033 -0.000045  0.0222    1.5256   
     7. B(B   8,B   2)                1.5033 -0.005033  0.0126    1.5159   
     8. B(B   9,B   6)                1.6542 -0.000224 -0.0070    1.6472   
     9. B(B   9,B   1)                1.5573 -0.006009  0.0431    1.6003   
    10. B(B   9,B   0)                1.4296 -0.010001  0.0204    1.4500   
    11. B(B  10,B   5)                1.5201  0.000502 -0.0031    1.5170   
    12. B(B  10,B   1)                1.5106 -0.007881  0.0013    1.5119   
    13. B(B  11,B   4)                1.7406 -0.000163 -0.0228    1.7178   
    14. B(B  11,B   3)                1.8004 -0.001356  0.0021    1.8025   
    15. B(B  11,B   2)                2.0522 -0.003339 -0.0129    2.0392   
    16. B(B  11,B  10)                1.9298 -0.001997  0.0334    1.9633   
    17. B(B  11,B   7)                1.8868 -0.000946  0.0381    1.9249   
    18. B(B  11,B   5)                1.7233 -0.004292  0.0491    1.7723   
    19. A(B   9,B   1,B  10)          148.74  0.000225    2.36    151.11   
    20. A(B   6,B   1,B   9)           62.01  0.001136   -1.17     60.84   
    21. A(B   6,B   1,B  10)           86.90 -0.000899    3.35     90.25   
    22. A(B   8,B   2,B  11)           73.06 -0.000685    1.12     74.18   
    23. A(B   3,B   2,B  11)           58.45  0.001216    0.23     58.68   
    24. A(B   3,B   2,B   8)          131.47  0.000534    1.11    132.58   
    25. A(B   2,B   3,B   4)          138.76  0.000846   -2.11    136.65   
    26. A(B   2,B   3,B  11)           76.25  0.001160   -0.96     75.29   
    27. A(B   4,B   3,B  11)           62.61 -0.000303   -1.15     61.46   
    28. A(B   7,B   4,B  11)           70.55 -0.000905    2.52     73.08   
    29. A(B   3,B   4,B  11)           66.70 -0.001175    0.53     67.23   
    30. A(B   3,B   4,B   7)          136.91 -0.002070    3.00    139.92   
    31. A(B   8,B   5,B  10)          155.36 -0.001232   -0.92    154.44   
    32. A(B   8,B   5,B  11)           83.84 -0.001439   -1.13     82.71   
    33. A(B  10,B   5,B  11)           72.72  0.000232    0.05     72.77   
    34. A(B   1,B   6,B   7)          126.46  0.001901   -1.93    124.53   
    35. A(B   7,B   6,B   9)          171.54  0.000248    0.14    171.68   
    36. A(B   1,B   6,B   9)           56.23 -0.002043    1.79     58.02   
    37. A(B   4,B   7,B  11)           60.45 -0.000183   -1.79     58.65   
    38. A(B   4,B   7,B   6)          170.72  0.000888   -1.36    169.36   
    39. A(B   6,B   7,B  11)          110.27  0.001070    0.37    110.64   
    40. A(B   2,B   8,B   5)          117.51  0.001154   -0.32    117.19   
    41. A(B   1,B   9,B   6)           61.76  0.000907   -0.61     61.15   
    42. A(B   0,B   9,B   6)          168.21  0.001313   -0.94    167.27   
    43. A(B   0,B   9,B   1)          117.78 -0.000863    0.55    118.33   
    44. A(B   5,B  10,B  11)           58.50 -0.001139    1.09     59.59   
    45. A(B   1,B  10,B  11)          133.84  0.000002   -2.49    131.36   
    46. A(B   1,B  10,B   5)          166.32  0.001235    1.34    167.66   
    47. A(B   4,B  11,B   5)          172.22 -0.000278    0.34    172.55   
    48. A(B   3,B  11,B   5)          130.41 -0.001429    0.87    131.28   
    49. A(B   2,B  11,B   5)           85.35  0.000942    0.04     85.39   
    50. A(B   3,B  11,B   4)           50.69  0.001478    0.62     51.31   
    51. A(B   2,B  11,B   4)           95.95 -0.000900    1.34     97.29   
    52. A(B   2,B  11,B   3)           45.30 -0.002376    0.73     46.03   
    53. A(B   5,B  11,B  10)           48.78  0.000907   -1.13     47.64   
    54. A(B   4,B  11,B  10)          130.05 -0.000920   -0.11    129.94   
    55. A(B   2,B  11,B  10)          133.93  0.001829   -1.13    132.81   
    56. A(B   5,B  11,B   7)          129.77 -0.001124   -0.63    129.14   
    57. A(B   4,B  11,B   7)           49.00  0.001088   -0.73     48.27   
    58. A(B   3,B  11,B   7)           99.53  0.002555   -0.11     99.42   
    59. A(B   7,B  11,B  10)           81.25 -0.002011    0.51     81.76   
    60. A(B   2,B  11,B   7)          144.81  0.000180    0.63    145.44   
    61. D(B   4,B   3,B   2,B  11)      3.99  0.000229   -0.19      3.79   
    62. D(B   4,B   3,B   2,B   8)      1.26  0.000361   -1.35     -0.10   
    63. D(B  11,B   3,B   2,B   8)     -2.73  0.000132   -1.16     -3.89   
    64. D(B   7,B   4,B   3,B  11)     -7.64  0.000242   -0.52     -8.16   
    65. D(B  11,B   4,B   3,B   2)     -4.36 -0.000284    0.20     -4.16   
    66. D(B   7,B   4,B   3,B   2)    -12.00 -0.000042   -0.32    -12.32   
    67. D(B   9,B   6,B   1,B  10)    176.68 -0.000096    1.40    178.09   
    68. D(B   7,B   6,B   1,B  10)      6.49 -0.000120    0.80      7.29   
    69. D(B   7,B   6,B   1,B   9)   -170.19 -0.000023   -0.60   -170.80   
    70. D(B   6,B   7,B   4,B  11)     -0.68  0.000317   -4.59     -5.27   
    71. D(B   4,B   7,B   6,B   9)   -105.26  0.000451    2.92   -102.34   
    72. D(B  11,B   7,B   4,B   3)      7.44 -0.000260    0.37      7.82   
    73. D(B   4,B   7,B   6,B   1)      0.44 -0.000131    3.63      4.07   
    74. D(B   6,B   7,B   4,B   3)      6.76  0.000056   -4.21      2.55   
    75. D(B  11,B   7,B   6,B   1)     -0.19  0.000159   -0.74     -0.94   
    76. D(B  11,B   7,B   6,B   9)   -105.89  0.000741   -1.46   -107.35   
    77. D(B   2,B   8,B   5,B  11)      4.83  0.000327   -1.82      3.02   
    78. D(B   5,B   8,B   2,B   3)     -1.79 -0.000333    2.99      1.21   
    79. D(B   5,B   8,B   2,B  11)     -4.22 -0.000255    1.94     -2.27   
    80. D(B   2,B   8,B   5,B  10)     22.70  0.000125   -3.74     18.96   
    81. D(B   0,B   9,B   1,B  10)    160.26  0.001377    0.85    161.11   
    82. D(B   0,B   9,B   6,B   7)     20.43  0.000191   -0.76     19.67   
    83. D(B   0,B   9,B   6,B   1)    -90.91  0.000511   -0.67    -91.59   
    84. D(B   6,B   9,B   1,B  10)     -6.39 -0.000222    1.95     -4.44   
    85. D(B   0,B   9,B   1,B   6)    166.65  0.001599   -1.10    165.55   
    86. D(B   1,B   9,B   6,B   7)    111.35 -0.000319   -0.09    111.26   
    87. D(B   5,B  10,B   1,B   9)   -159.17  0.000736   -1.59   -160.75   
    88. D(B  11,B  10,B   1,B   6)    -12.83  0.000432    0.13    -12.70   
    89. D(B   5,B  10,B   1,B   6)   -164.82  0.000475    0.19   -164.63   
    90. D(B   1,B  10,B   3,B   2)   -165.82 -0.000197   -1.01   -166.83   
    91. D(B  11,B  10,B   1,B   9)     -7.18  0.000693   -1.65     -8.83   
    92. D(B   1,B  10,B   5,B  11)    156.59 -0.000337   -0.99    155.60   
    93. D(B   1,B  10,B   5,B   8)    137.96 -0.000050    1.03    138.99   
    94. D(B   5,B  10,B   3,B   4)   -170.53  0.000490    0.14   -170.39   
    95. D(B   5,B  10,B   3,B   2)      6.71  0.000292   -0.25      6.46   
    96. D(B   1,B  10,B   3,B   4)     16.94  0.000001   -0.62     16.33   
    97. D(B  11,B  10,B   5,B   8)    -18.63  0.000287    2.02    -16.61   
    98. D(B   4,B  11,B   5,B   8)   -103.04 -0.000043   -6.15   -109.19   
    99. D(B   3,B  11,B   5,B  10)    179.50  0.000347    1.17    180.67   
   100. D(B   3,B  11,B   5,B   8)     -8.20  0.000078    2.06     -6.14   
   101. D(B   2,B  11,B   5,B   8)     -3.15 -0.000125    1.36     -1.79   
   102. D(B  10,B  11,B   4,B   3)    179.33  0.000216    1.04    180.38   
   103. D(B   7,B  11,B   4,B   3)   -174.47  0.000070   -0.13   -174.61   
   104. D(B   5,B  11,B   4,B   3)    101.29  0.000018    7.59    108.88   
   105. D(B   3,B  11,B   4,B   7)    174.47 -0.000070    0.13    174.61   
   106. D(B   2,B  11,B   4,B   7)    176.59 -0.000069    0.25    176.83   
   107. D(B   2,B  11,B   4,B   3)      2.11  0.000001    0.11      2.23   
   108. D(B   7,B  11,B   3,B   4)      4.23  0.000155   -0.18      4.05   
   109. D(B   7,B  11,B   3,B   2)   -178.73  0.000027   -0.25   -178.98   
   110. D(B   5,B  11,B   3,B   4)   -169.96  0.000144   -1.02   -170.98   
   111. D(B   5,B  11,B   3,B   2)      7.09  0.000016   -1.10      5.99   
   112. D(B   4,B  11,B   3,B   2)    177.04 -0.000128   -0.07    176.97   
   113. D(B   2,B  11,B   3,B   4)   -177.04  0.000128    0.07   -176.97   
   114. D(B   5,B  11,B   4,B   7)    -84.23 -0.000053    7.72    -76.51   
   115. D(B   7,B  11,B   2,B   8)   -179.96  0.000154   -0.78   -180.74   
   116. D(B   7,B  11,B   2,B   3)      2.17  0.000040   -0.37      1.80   
   117. D(B   5,B  11,B   2,B   8)      3.27  0.000234   -1.34      1.93   
   118. D(B   2,B  11,B   5,B  10)   -175.45  0.000143    0.47   -174.98   
   119. D(B   5,B  11,B   2,B   3)   -174.59  0.000120   -0.93   -175.52   
   120. D(B   4,B  11,B   2,B   8)    175.56 -0.000031   -0.51    175.06   
   121. D(B   4,B  11,B   2,B   3)     -2.30 -0.000144   -0.10     -2.40   
   122. D(B   4,B  11,B   5,B  10)     84.66  0.000226   -7.04     77.62   
   123. D(B   5,B  11,B  10,B   1)   -172.52 -0.000564   -0.96   -173.48   
   124. D(B   3,B  11,B   2,B   8)    177.86  0.000114   -0.41    177.45   
   125. D(B   4,B  11,B  10,B   1)     17.63 -0.000335   -1.86     15.77   
   126. D(B   2,B  11,B  10,B   5)      6.30  0.000402    0.48      6.79   
   127. D(B   2,B  11,B  10,B   1)   -166.21 -0.000162   -0.48   -166.69   
   128. D(B   5,B  11,B   7,B   6)    -10.21 -0.000132    0.51     -9.70   
   129. D(B   5,B  11,B   7,B   4)    169.90 -0.000196    1.03    170.93   
   130. D(B   4,B  11,B   7,B   6)    179.88  0.000065   -0.52    179.37   
   131. D(B   3,B  11,B   7,B   6)    175.55 -0.000114   -0.46    175.09   
   132. D(B   3,B  11,B   7,B   4)     -4.33 -0.000179    0.06     -4.28   
   133. D(B   2,B  11,B   7,B   6)    173.98 -0.000091   -0.22    173.76   
   134. D(B   4,B  11,B  10,B   5)   -169.86  0.000229   -0.90   -170.75   
   135. D(B   2,B  11,B   7,B   4)     -5.90 -0.000156    0.30     -5.60   
   136. D(B   7,B  11,B  10,B   1)     12.90 -0.000327   -0.88     12.02   
   137. D(B   7,B  11,B  10,B   5)   -174.58  0.000237    0.08   -174.50   
   138. D(B   7,B  11,B   5,B   8)    179.28 -0.000116    0.92    180.19   
    ----------------------------------------------------------------------------

Geometry step timings:
Preparation and reading OPT file:      0.000 s ( 0.617 %)
Internal coordinates            :      0.000 s ( 0.935 %)
B/P matrices and projection     :      0.001 s (27.028 %)
Hessian update/contruction      :      0.001 s (15.271 %)
Making the step                 :      0.002 s (30.879 %)
Converting the step to Cartesian:      0.000 s ( 3.776 %)
Storing new data                :      0.000 s ( 1.028 %)
Checking convergence            :      0.000 s ( 1.234 %)
Final printing                  :      0.001 s (19.234 %)
Total time                      :      0.005 s

Time for energy+gradient        :      0.064 s
Time for complete geometry iter :      0.070 s




    ----------------------------------------------------------------------------
                                  WARNING !!!
       The optimization did not converge but reached the maximum number of
       optimization cycles.
       Please check your results very carefully.
    ----------------------------------------------------------------------------



--------------------------------
SUGGESTED CITATIONS FOR THIS RUN
--------------------------------

Below you find a list of papers that are relevant to this ORCA run
We neither can nor want to force you to cite these papers, but we appreciate if you do
You receive ORCA, which is the product of decades of hard work by many enthusiastic individuals, for free
The only thing we kindly ask in return is that you cite our papers,
We deeply appreciate it, if you show your appreciation for ORCA by not just citing the generic ORCA reference.

Please note that relegating all ORCA citations to the supporting information does *not* help us.
SI sections are not indexed - citations you put there will not count into any citation statistics
But we need these citations in order to attract the funding resources that allow us to do what we are doing

Therefore, if you are a happy ORCA user, please consider citing a few of the papers listed below in the main body of your paper

In addition to the list printed below, the program has created the file random_d1.90_001_m1.bibtex that contains the list in bibtex format
You can import this file easily into all common literature databanks and citation aid programs

It goes without saying that in many instances, there are alternative algorithms to achieve similar
results as the ones you have gotten from ORCA. It is, of course, also the case that in some instances
ORCA just re-implements algorithms worked out by others. We are fully aware of that and we are also
fully appreciative of our colleagues work. Hence this citation list should not be read as indicating
that the listed papers, which are focused on our own work, are the only ones worth citing. It simply
meant to make it easier for users to cite ORCA specific papers. It is not a substitute for doing your
own literature research and citing the relevant literature in a scientifically appropriate manner.

List of essential papers. We consider these as the minimum necessary citations

  1. Bannwarth, C.; Ehlert, S.; Grimme, S.
     GFN2-xTB—An Accurate and Broadly Parametrized Self-Consistent Tight-Binding Quantum Chemical Method with Multipole Electrostatics and Density-Dependent Dispersion Contributions
     J. Chem. Theory Comput. 2019 15(3), 1652-1671
     doi.org/10.1021/acs.jctc.8b01176
  2. Neese, F.
     Software update: the ORCA program system, version 6.0
     WIRES Comput. Molec. Sci. 2025 15(1), e70019
     doi.org/10.1002/wcms.70019

List of papers to cite with high priority. The work reported in these papers was absolutely
necessary for this run to complete.
Our perspective: the developers of density functionals and basis sets usually get cited in chemistry papers
Good! But without the algorithms to do something with them, the functionals or basis sets would not do anything.
Hence, in our opinion, the algorithm design and method developments papers are equally worthy of getting cited

  1. Bannwarth, C.; Caldeweyher, E.; Ehlert, S.; Hansen, A.; Pracht, P.; Seibert, J.; Spicher, S.; Grimme, S.
     Extended tight-binding quantum chemistry methods
     WIRES Comput. Molec. Sci. 2020 11(2), e1493
     doi.org/10.1002/wcms.1493

List of suggested additional citations. These are papers that are important in the 'surrounding' of 
of this run, or papers that preceded the highly important papers. If you like your results we are grateful for a citation.

  1. Neese, F.
     The ORCA program system
     WIRES Comput. Molec. Sci. 2012 2(1), 73-78
     doi.org/10.1002/wcms.81
  2. Neese, F.
     Software update: the ORCA program system, version 4.0
     WIRES Comput. Molec. Sci. 2018 8(1), 1-6
     doi.org/10.1002/wcms.1327
  3. Neese, F.; Wennmohs, F.; Becker, U.; Riplinger, C.
     The ORCA quantum chemistry program package
     J. Chem. Phys. 2020 152(22), 224108
     doi.org/10.1063/5.0004608
  4. Neese, F.
     Software update: The ORCA program system—Version 5.0
     WIRES Comput. Molec. Sci. 2022 12(1), e1606
     doi.org/10.1002/wcms.1606

List of optional additional citations

  1. Neese, F.
     Approximate second-order SCF convergence for spin unrestricted wavefunctions
     Chem. Phys. Lett. 2000 325(1-3), 93-98
     doi.org/10.1016/s0009-2614(00)00662-x

Timings for individual modules:

Sum of individual times          ...        4.327 sec (=   0.072 min)
Geometry relaxation              ...        1.235 sec (=   0.021 min)  28.5 %
XTB module                       ...        3.092 sec (=   0.052 min)  71.5 %
                             ****ORCA TERMINATED NORMALLY****
TOTAL RUN TIME: 0 days 0 hours 0 minutes 4 seconds 808 msec
