
                                 *****************
                                 * O   R   C   A *
                                 *****************

                                            #,                                       
                                            ###                                      
                                            ####                                     
                                            #####                                    
                                            ######                                   
                                           ########,                                 
                                     ,,################,,,,,                         
                               ,,#################################,,                 
                          ,,##########################################,,             
                       ,#########################################, ''#####,          
                    ,#############################################,,   '####,        
                  ,##################################################,,,,####,       
                ,###########''''           ''''###############################       
              ,#####''   ,,,,##########,,,,          '''####'''          '####       
            ,##' ,,,,###########################,,,                        '##       
           ' ,,###''''                  '''############,,,                           
         ,,##''                                '''############,,,,        ,,,,,,###''
      ,#''                                            '''#######################'''  
     '                                                          ''''####''''         
             ,#######,   #######,   ,#######,      ##                                
            ,#'     '#,  ##    ##  ,#'     '#,    #''#        ,####,    ,#,          
            ##       ##  ##   ,#'  ##            #'  '#       #'       ,# #          
            ##       ##  #######   ##           ,######,      #####,      #          
            '#,     ,#'  ##    ##  '#,     ,#' ,#      #,     #,   #      #          
             '#######'   ##     ##  '#######'  #'      '#     '####' #    #          



                #########################################################
                #                        -***-                          #
                #          Department of theory and spectroscopy        #
                #                                                       #
                #                      Frank Neese                      #
                #                                                       #
                #     Directorship, Architecture, Infrastructure        #
                #                    SHARK, DRIVERS                     #
                #        Core code/Algorithms in most modules           #
                #                                                       #
                #        Max Planck Institute fuer Kohlenforschung      #
                #                Kaiser Wilhelm Platz 1                 #
                #                 D-45470 Muelheim/Ruhr                 #
                #                      Germany                          #
                #                                                       #
                #                  All rights reserved                  #
                #                        -***-                          #
                #########################################################


                         Program Version 6.1.1  -  RELEASE   -
                                (GIT: $487d211c$)
                          ($2025-11-21 10:33:24 +0100$)
                                                                         
                                  - NO-DMRG VERSION -                    
                                                                         


 With contributions from (in alphabetic order):
[Max-Planck-Institut fuer Kohlenforschung]                               
  Daniel Aravena         : Magnetic Suceptibility                        
  Michael Atanasov       : Ab Initio Ligand Field Theory (pilot matlab implementation)
  Alexander A. Auer      : GIAO ZORA, VPT2 properties, NMR spectrum      
  Ute Becker             : All parallelization in ORCA, NUMFREQ, NUMCALC 
  Giovanni Bistoni       : ED, misc. LED, open-shell LED, HFLD           
  Dmytro Bykov           : pre 5.0 version of the SCF Hessian            
  Marcos Casanova-Páez   : Triplet and SCS-CIS(D). UHF-(DLPNO)-IP/EA/STEOM-CCSD. UHF-CVS-IP/STEOM-CCSD   
  Vijay G. Chilkuri      : MRCI spin determinant printing, contributions to CSF-ICE 
  Pauline Colinet        : FMM embedding                                 
  Dipayan Datta          : RHF DLPNO-CCSD density                        
  Achintya Kumar Dutta   : EOM-CC, STEOM-CC                              
  Nicolas Foglia         : Exact transition moments, OPA infrastructure, MCD improvements    
  Dmitry Ganyushin       : Spin-Orbit,Spin-Spin,Magnetic field MRCI      
  Miquel Garcia-Rates    : C-PCM and meta-GGA Hessian, CCSD/C-PCM, Gaussian charge scheme 
  Tiago L. C. Gouveia    : GS-ROHF, GS-ROCIS                             
  Yang Guo               : DLPNO-NEVPT2, F12-NEVPT2, CIM, IAO-localization        
  Andreas Hansen         : Spin unrestricted coupled pair/coupled cluster methods 
  Ingolf Harden          : AUTO-CI MPn and infrastructure                
  Benjamin Helmich-Paris : MC-RPA, TRAH-(SCF,CASSCF), AVAS, COSX integrals, SCF dyn. polar., MC-PDFT, srDFT 
  Lee Huntington         : MR-EOM, pCC                                   
  Robert Izsak           : Overlap fitted RIJCOSX, COSX-SCS-MP3, EOM     
  Riya Kayal             : Wick's Theorem for AUTO-CI, AUTO-CI UHF-CCSDT 
  Emily Kempfer          : AUTO-CI RHF CISDT and CCSDT, approximate NEVPT4
  Christian Kollmar      : KDIIS, OOCD, Brueckner-CCSD(T), CCSD density, CASPT2, CASPT2-K, improved NEVPT2 
  Axel Koslowski         : Symmetry handling                             
  Simone Kossmann        : meta-GGA functionals, TD-DFT gradient, OOMP2, (MP2 Hessian; deprecated post 5.0) 
  Lucas Lang             : DCDCAS, Hyperfine gauge corrections, ICE-SOC+SSC
  Marvin Lechner         : AUTO-CI (C++ implementation), FIC-MRCC        
  Spencer Leger          : CASSCF response                               
  Dagmar Lenk            : GEPOL surface, SMD, ORCA-2-JSON               
  Dimitrios Liakos       : Extrapolation schemes; Compound Job, Property file
  Dimitrios Manganas     : Further ROCIS development; embedding schemes. LFT, Crystal Embedding 
  Dimitrios Pantazis     : SARC Basis sets                               
  Anastasios Papadopoulos: AUTO-CI, single reference methods and gradients 
  Taras Petrenko         : pre 6.0 DFT Hessian and TD-DFT gradient,  ECA, NRVS 
  Petra Pikulova         : Analytic Raman intensities                    
  Peter Pinski           : DLPNO-MP2, DLPNO-MP2 Gradient                 
  Shashank Vittal Rao    : ES-AILFT, MagRelax                            
  Christoph Reimann      : Effective Core Potentials                     
  Marius Retegan         : Local ZFS, SOC                                
  Christoph Riplinger    : Optimizer, TS searches, QM/MM, DLPNO-CCSD(T), (RO)-DLPNO pert. Triples 
  Michael Roemelt        : Original ROCIS implementation, recursive CI coupling coefficients
  Masaaki Saitow         : Open-shell DLPNO-CCSD energy and density      
  Barbara Sandhoefer     : DKH picture change effects                    
  Yorick L. A. Schmerwitz: GMF and freeze-and-release deltaSCF, NEB S-IDPP initial path                    
  Kantharuban Sivalingam : CASSCF convergence/infrastructure, NEVPT2, NEVPT3, NEVPT4(SD), FIC-MRCI and CEPA variants
  Bernardo de Souza      : ESD, SOC TD-DFT                               
  Georgi L. Stoychev     : AutoAux, RI-MP2 NMR, DLPNO-MP2 response, X2C  
  Van Anh Tran           : RI-MP2 g-tensors                              
  Willem Van den Heuvel  : Paramagnetic NMR                              
  Zikuan Wang            : NOTCH, Electric field optimization            
  Frank Wennmohs         : Technical directorship and infrastructure     
  Hang Xu                : AUTO-CI-Response properties                   
                                                                         
[FACCTs GmbH]                                                            
  Markus Bursch, Nicolas Foglia, Miquel Garcia-Rates, Ingolf Harden, Hagen Neugebauer, Anastasios Papadopoulos, 
  Christoph Riplinger, Bernardo de Souza, Georgi L. Stoychev                                                    
                                                                 
  APM, various basis sets, CI-OPT, improved COSX, DLPNO-Multilevel,           
  DOCKER, DRACO, updates on ESD, Fragmentator, GOAT, IRC, LR-CPCM, L-BFGS, MBIS, meta-GGA TD-DFT gradient, ML-optimized integration grids, 
  MM, NACMEs, nearIR, NEB, NEB-TS, NL-DFT gradient (VV10), 2- and 3-layer-ONIOM, interface openCOSMO-RS, QMMM,   
  Crystal-QMMM, RESP, rigid body optimization, SF, symmetry and pop. for TD-DFT, various functionals, SOLVATOR                                   
                                                                         
[Other institutions]                                                     
  V. Asgeirsson          : NEB                                           
  Christoph Bannwarth    : sTDA-DFT, sTD-DFT, PBEh-3c, B97-3c, D3        
  Giovanni Bistoni       : ETS/NOCV, ADLD/ADEX, COVALED                  
  Martin Brehm           : Molecular dynamics                            
  Ronald Cardenas        : ETS/NOCV                                      
  Martina Colucci        : COVALED                                       
  Sebastian Ehlert       : rSCAN, r2SCAN, r2SCAN-3c, D4, dhf basis sets  
  Marvin Friede          : D4 for Fr, Ra, Ac-Lr                          
  Lars Goerigk           : TD-DFT with DH, B97 family of functionals     
  Stefan Grimme          : VdW corrections, initial TS optimization, DFT functionals, gCP, sTDA/sTD-DF 
  Waldemar Hujo          : DFT-NL                                        
  H. Jonsson             : NEB                                           
  Holger Kruse           : gCP                                           
  Marcel Mueller         : wB97X-3c, vDZP basis set                      
  Hagen Neugebauer       : wr2SCAN, Native XTB                           
  Gianluca Regni         : ADLD/ADEX                                     
  Tobias Risthaus        : pre 6.0 range-separated hybrid DFT and stability analysis
  Lukas Wittmann         : regularized MP2, r2SCAN double-hybrids, wr2SCAN        
                                                                         
We gratefully acknowledge several colleagues who have allowed us to      
interface, adapt or use parts of their codes:                            
  Ed Valeev, F. Pavosevic, A. Kumar             : LibInt (2-el integral package), F12 methods 
  Garnet Chan, S. Sharma, J. Yang, R. Olivares  : DMRG                   
  Ulf Ekstrom                                   : XCFun DFT Library      
  Mihaly Kallay                                 : mrcc  (arbitrary order and MRCC methods)
  Frank Weinhold                                : gennbo (NPA and NBO analysis)           
  Simon Mueller                                 : openCOSMO-RS                            
  Christopher J. Cramer and Donald G. Truhlar   : smd solvation model                     
  S Lehtola, MJT Oliveira, MAL Marques          : LibXC Library                           
  Liviu Ungur et al                             : ANISO software                          


 Your calculation uses the libint2 library for the computation of 2-el integrals
 For citations please refer to: http://libint.valeyev.net

 Your ORCA version has been built with support for libXC version: 7.0.0
 For citations please refer to: https://libxc.gitlab.io

 This ORCA versions uses:
   CBLAS   interface :  Fast vector & matrix operations
   LAPACKE interface :  Fast linear algebra routines
   SCALAPACK package :  Parallel linear algebra routines
   Shared memory     :  Shared parallel matrices
   BLAS/LAPACK       :  OpenBLAS 0.3.29  USE64BITINT DYNAMIC_ARCH NO_AFFINITY Zen SINGLE_THREADED
        Core in use  :  Zen
   Copyright (c) 2011-2014, The OpenBLAS Project


  ***********************************
  * Starting time: Fri Apr 17 12:14:24 2026
  * Host name:     vmi3233575
  * Process ID:    335028
  * Working dir.:  /root/orca_b12_vps_pack/jobs/01_xtb/mult_1
  ***********************************

NOTE: MaxCore=500 MB was set to SCF,MP2,MDCI,CIPSI,MRCI,RASCI and CIS
      => If you want to overwrite this, your respective input block should be placed after the MaxCore statement


***************************************
The coordinates will be read from file: ../../../starts/random_d2.10_010.xyz
***************************************


Your calculation utilizes the semiempirical GFN2-xTB method
Please cite in your paper:
Bannwarth, C.; Ehlert S.; Grimme, S. J. Chem. Theory Comput. 2019, 15, 1652.
   

================================================================================

================================================================================
                                        WARNINGS
                       Please study these warnings very carefully!
================================================================================


WARNING: Geometry Optimization
  ===> : Switching off AutoStart
         For restart on a previous wavefunction, please use MOREAD

WARNING: Found dipole moment calculation with XTB calculation
  ===> : Switching off dipole moment calculation

Environment variable XTBEXE for xtb has been set!

================================================================================
                                       INPUT FILE
================================================================================
NAME = random_d2.10_010_m1.inp
|  1> ! GFN2-xTB TightSCF TightOpt
|  2> 
|  3> %pal
|  4>   nprocs 1
|  5> end
|  6> 
|  7> %maxcore 500
|  8> 
|  9> * xyzfile 0 1 ../../../starts/random_d2.10_010.xyz
| 10> 
| 11>                          ****END OF INPUT****
================================================================================

                       *****************************
                       * Geometry Optimization Run *
                       *****************************

Geometry optimization settings:
Update method            Update   .... BFGS
Choice of coordinates    CoordSys .... (2022) Redundant Internals
Initial Hessian          InHess   .... Almloef's Model
Max. no of cycles        MaxIter  .... 50

Convergence Tolerances:
Energy Change            TolE     ....  1.0000e-06 Eh
Max. Gradient            TolMAXG  ....  1.0000e-04 Eh/bohr
RMS Gradient             TolRMSG  ....  3.0000e-05 Eh/bohr
Max. Displacement        TolMAXD  ....  1.0000e-03 bohr
RMS Displacement         TolRMSD  ....  6.0000e-04 bohr
Strict Convergence                .... False

------------------------------------------------------------------------------
                        ORCA OPTIMIZATION COORDINATE SETUP
------------------------------------------------------------------------------

The optimization will be done in redundant internal coordinates (2022)
Making redundant internal coordinates   ...  (2022 redundants) done
Evaluating the initial hessian          ...  (Almloef) done
Evaluating the coordinates              ...  done
Calculating the B-matrix                .... done
Calculating the G-matrix                .... done
The number of degrees of freedom        ....  159

    -----------------------------------------------------------------
                    Redundant Internal Coordinates


    -----------------------------------------------------------------
         Definition                    Initial Value    Approx d2E/dq
    -----------------------------------------------------------------
      1. B(B   1,B   0)                  2.8989         0.010000   
      2. B(B   2,B   0)                  1.6620         0.308614   
      3. B(B   3,B   0)                  2.2517         0.035363   
      4. B(B   3,B   1)                  1.3309         1.041491   
      5. B(B   4,B   3)                  2.4514         0.016980   
      6. B(B   5,B   1)                  2.6612         0.010000   
      7. B(B   5,B   0)                  1.7496         0.223708   
      8. B(B   5,B   2)                  2.0208         0.082604   
      9. B(B   5,B   4)                  3.1642         0.010000   
     10. B(B   5,B   3)                  2.4479         0.017198   
     11. B(B   6,B   3)                  2.8916         0.010000   
     12. B(B   6,B   4)                  1.6989         0.269507   
     13. B(B   7,B   6)                  2.0198         0.082890   
     14. B(B   8,B   1)                  2.8091         0.010000   
     15. B(B  10,B   8)                  2.0336         0.078797   
     16. B(B  10,B   7)                  2.2400         0.036913   
     17. B(B  10,B   9)                  1.7362         0.235010   
     18. B(B  11,B  10)                  2.6545         0.010000   
     19. B(B  11,B   6)                  1.7210         0.248489   
     20. A(B   1,B   0,B   3)           26.3102         0.146492   
     21. A(B   2,B   0,B   5)           72.5936         0.333119   
     22. A(B   1,B   0,B   2)           88.2056         0.182877   
     23. A(B   3,B   0,B   5)           74.2489         0.238502   
     24. A(B   2,B   0,B   3)          114.5047         0.249795   
     25. A(B   1,B   0,B   5)           64.4000         0.176284   
     26. A(B   3,B   1,B   5)           66.1807         0.239654   
     27. A(B   0,B   1,B   8)          114.7918         0.125168   
     28. A(B   0,B   1,B   5)           36.3636         0.129903   
     29. A(B   3,B   1,B   8)          123.9992         0.222215   
     30. A(B   0,B   1,B   3)           48.5811         0.212629   
     31. A(B   5,B   1,B   8)           78.7046         0.133074   
     32. A(B   0,B   2,B   5)           55.7050         0.283836   
     33. A(B   1,B   3,B   6)           94.6512         0.213384   
     34. A(B   0,B   3,B   5)           43.4623         0.172649   
     35. A(B   4,B   3,B   5)           80.4577         0.159851   
     36. A(B   0,B   3,B   4)          105.0517         0.172407   
     37. A(B   1,B   3,B   5)           83.9929         0.268878   
     38. A(B   1,B   3,B   4)          114.8076         0.268357   
     39. A(B   0,B   3,B   1)          105.1087         0.300755   
     40. A(B   4,B   3,B   6)           35.8956         0.137993   
     41. A(B   0,B   3,B   6)          140.8120         0.146843   
     42. A(B   5,B   3,B   6)          107.8521         0.138135   
     43. A(B   3,B   4,B   6)           86.3225         0.221081   
     44. A(B   3,B   4,B   5)           49.7230         0.128057   
     45. A(B   5,B   4,B   6)          122.6185         0.162021   
     46. A(B   1,B   5,B   4)           67.0178         0.121806   
     47. A(B   2,B   5,B   3)           94.9922         0.190358   
     48. A(B   0,B   5,B   3)           62.2888         0.215996   
     49. A(B   0,B   5,B   2)           51.7014         0.270152   
     50. A(B   3,B   5,B   4)           49.8193         0.128170   
     51. A(B   2,B   5,B   4)          142.4996         0.144873   
     52. A(B   1,B   5,B   3)           29.8264         0.148512   
     53. A(B   0,B   5,B   4)           94.5243         0.159006   
     54. A(B   1,B   5,B   2)           88.3960         0.173891   
     55. A(B   0,B   5,B   1)           79.2364         0.195363   
     56. A(B   3,B   6,B  11)          105.6939         0.178930   
     57. A(B   3,B   6,B   7)          110.3727         0.159143   
     58. A(B   3,B   6,B   4)           57.7819         0.180598   
     59. A(B   7,B   6,B  11)           75.9778         0.274656   
     60. A(B   4,B   6,B  11)           84.7217         0.331442   
     61. A(B   4,B   6,B   7)          153.7114         0.278099   
     62. A(B   6,B   7,B  10)          103.0640         0.209579   
     63. A(B   1,B   8,B  10)           86.3453         0.163267   
     64. A(B   7,B  10,B  11)           55.6688         0.160139   
     65. A(B   9,B  10,B  11)           86.8482         0.197159   
     66. A(B   8,B  10,B  11)           78.1578         0.173459   
     67. A(B   8,B  10,B   9)           71.3318         0.270238   
     68. A(B   7,B  10,B   9)          126.0486         0.241654   
     69. A(B   7,B  10,B   8)          125.6054         0.208205   
     70. A(B   6,B  11,B  10)           97.1364         0.198533   
     71. D(B   5,B   1,B   0,B   2)     71.5266         0.010000   
     72. D(B   3,B   1,B   0,B   2)    178.3768         0.010000   
     73. D(B   3,B   1,B   0,B   5)    106.8502         0.010000   
     74. D(B   5,B   1,B   0,B   3)   -106.8502         0.010000   
     75. D(B   8,B   1,B   0,B   5)     -7.5999         0.010000   
     76. D(B   8,B   1,B   0,B   2)     63.9267         0.010000   
     77. D(B   5,B   2,B   0,B   1)    -63.6903         0.010000   
     78. D(B   5,B   2,B   0,B   3)    -62.8997         0.010000   
     79. D(B   4,B   3,B   1,B   0)   -114.9058         0.067630   
     80. D(B   4,B   3,B   0,B   2)    119.7264         0.010000   
     81. D(B   4,B   3,B   1,B   5)    -76.5688         0.067630   
     82. D(B   5,B   3,B   0,B   2)     61.9559         0.010000   
     83. D(B   4,B   3,B   1,B   8)    -20.3492         0.067630   
     84. D(B   4,B   3,B   0,B   1)    121.5094         0.010000   
     85. D(B   5,B   3,B   0,B   1)     63.7389         0.010000   
     86. D(B   5,B   3,B   1,B   8)     56.2196         0.067630   
     87. D(B   5,B   3,B   1,B   0)    -38.3370         0.067630   
     88. D(B   1,B   3,B   0,B   2)     -1.7830         0.010000   
     89. D(B   0,B   3,B   1,B   8)     94.5566         0.067630   
     90. D(B   1,B   3,B   0,B   5)    -63.7389         0.010000   
     91. D(B   0,B   3,B   1,B   5)     38.3370         0.067630   
     92. D(B   4,B   3,B   0,B   5)     57.7705         0.010000   
     93. D(B   5,B   4,B   3,B   6)    139.6819         0.010000   
     94. D(B   6,B   4,B   3,B   0)   -175.8426         0.010000   
     95. D(B   6,B   4,B   3,B   1)    -60.9038         0.010000   
     96. D(B   6,B   4,B   3,B   5)   -139.6819         0.010000   
     97. D(B   5,B   4,B   3,B   0)    -36.1607         0.010000   
     98. D(B   5,B   4,B   3,B   1)     78.7781         0.010000   
     99. D(B   3,B   5,B   0,B   2)   -122.6873         0.010000   
    100. D(B   2,B   5,B   0,B   1)     96.5355         0.010000   
    101. D(B   2,B   5,B   0,B   3)    122.6873         0.010000   
    102. D(B   2,B   5,B   4,B   3)     24.0142         0.010000   
    103. D(B   2,B   5,B   4,B   6)     74.0645         0.010000   
    104. D(B   0,B   5,B   4,B   6)     97.4116         0.010000   
    105. D(B   1,B   5,B   3,B   0)   -119.4752         0.010000   
    106. D(B   2,B   5,B   3,B   6)    170.9124         0.010000   
    107. D(B   2,B   5,B   3,B   4)   -165.6001         0.010000   
    108. D(B   2,B   5,B   3,B   0)    -41.5305         0.010000   
    109. D(B   2,B   5,B   3,B   1)     77.9447         0.010000   
    110. D(B   0,B   5,B   3,B   6)   -147.5571         0.010000   
    111. D(B   0,B   5,B   3,B   1)    119.4752         0.010000   
    112. D(B   4,B   5,B   2,B   0)     30.2254         0.010000   
    113. D(B   1,B   5,B   2,B   0)     77.5288         0.010000   
    114. D(B   3,B   5,B   2,B   0)     48.4118         0.010000   
    115. D(B   3,B   5,B   1,B   8)   -135.3566         0.010000   
    116. D(B   0,B   5,B   3,B   4)   -124.0695         0.010000   
    117. D(B   3,B   5,B   1,B   0)     51.6762         0.010000   
    118. D(B   2,B   5,B   1,B   8)    121.7069         0.010000   
    119. D(B   2,B   5,B   1,B   0)    -51.2603         0.010000   
    120. D(B   2,B   5,B   1,B   3)   -102.9365         0.010000   
    121. D(B   0,B   5,B   1,B   8)    172.9672         0.010000   
    122. D(B   0,B   5,B   1,B   3)    -51.6762         0.010000   
    123. D(B   4,B   5,B   0,B   2)   -162.0966         0.010000   
    124. D(B   0,B   5,B   4,B   3)     47.3613         0.010000   
    125. D(B   1,B   5,B   0,B   3)     26.1519         0.010000   
    126. D(B   1,B   5,B   0,B   2)    -96.5355         0.010000   
    127. D(B   3,B   5,B   4,B   6)     50.0503         0.010000   
    128. D(B   1,B   5,B   4,B   6)     21.1242         0.010000   
    129. D(B   3,B   5,B   0,B   1)    -26.1519         0.010000   
    130. D(B   7,B   6,B   3,B   1)    -26.4246         0.010000   
    131. D(B   4,B   6,B   3,B   5)     42.0945         0.010000   
    132. D(B   4,B   6,B   3,B   0)      6.3613         0.010000   
    133. D(B   4,B   6,B   3,B   1)    127.2699         0.010000   
    134. D(B  11,B   6,B   4,B   5)     76.4120         0.010000   
    135. D(B  11,B   6,B   4,B   3)    112.2909         0.010000   
    136. D(B   7,B   6,B   4,B   5)     33.8404         0.010000   
    137. D(B   7,B   6,B   4,B   3)     69.7193         0.010000   
    138. D(B   7,B   6,B   3,B   4)   -153.6945         0.010000   
    139. D(B   7,B   6,B   3,B   5)   -111.6001         0.010000   
    140. D(B   3,B   6,B   4,B   5)    -35.8789         0.010000   
    141. D(B   7,B   6,B   3,B   0)   -147.3332         0.010000   
    142. D(B  10,B   7,B   6,B   3)     54.6195         0.010000   
    143. D(B  10,B   7,B   6,B  11)    -47.1906         0.010000   
    144. D(B  10,B   7,B   6,B   4)     -3.2165         0.010000   
    145. D(B  10,B   8,B   1,B   0)    154.1957         0.010000   
    146. D(B  10,B   8,B   1,B   5)    149.6092         0.010000   
    147. D(B  10,B   8,B   1,B   3)     98.7681         0.010000   
    148. D(B  11,B  10,B   8,B   1)    -80.5627         0.010000   
    149. D(B   7,B  10,B   8,B   1)    -49.7546         0.010000   
    150. D(B   9,B  10,B   8,B   1)   -171.2242         0.010000   
    151. D(B  11,B  10,B   7,B   6)     33.9734         0.010000   
    152. D(B   9,B  10,B   7,B   6)     88.5631         0.010000   
    153. D(B   8,B  10,B   7,B   6)     -3.4001         0.010000   
    154. D(B   6,B  11,B  10,B   7)    -40.0803         0.010000   
    155. D(B   6,B  11,B  10,B   9)   -178.7835         0.010000   
    156. D(B   6,B  11,B  10,B   8)    109.6375         0.010000   
    157. D(B  10,B  11,B   6,B   3)    -70.1818         0.010000   
    158. D(B  10,B  11,B   6,B   7)     37.4285         0.010000   
    159. D(B  10,B  11,B   6,B   4)   -124.5831         0.010000   
    -----------------------------------------------------------------

Number of atoms                         .... 12
Number of degrees of freedom            .... 159


         *************************************************************
         *                GEOMETRY OPTIMIZATION CYCLE   1            *
         *************************************************************
---------------------------------
CARTESIAN COORDINATES (ANGSTROEM)
---------------------------------
  B    -0.791612    2.536201   -2.166249
  B     0.205111    1.498150    0.350261
  B    -2.127177    3.092084   -1.348017
  B     0.702013    1.443881   -0.883210
  B     0.835890   -0.809170   -1.839951
  B    -1.637705    1.140511   -1.535998
  B     1.875836   -1.177427   -0.548013
  B     2.296385   -1.515883    1.398354
  B    -1.372569   -0.522656    1.498495
  B    -0.912755   -2.335127    2.678814
  B     0.331447   -1.154172    2.411264
  B     0.595136   -2.196393   -0.015750

----------------------------
CARTESIAN COORDINATES (A.U.)
----------------------------
  NO LB    ZA    FRAG    MASS        X           Y           Z
   0 B   5.0000    0    10.810   -1.495931    4.792725   -4.093617
   1 B   5.0000    0    10.810    0.387603    2.831093    0.661898
   2 B   5.0000    0    10.810   -4.019781    5.843192   -2.547382
   3 B   5.0000    0    10.810    1.326612    2.728539   -1.669026
   4 B   5.0000    0    10.810    1.579603   -1.529109   -3.477004
   5 B   5.0000    0    10.810   -3.094813    2.155254   -2.902615
   6 B   5.0000    0    10.810    3.544817   -2.225014   -1.035595
   7 B   5.0000    0    10.810    4.339538   -2.864604    2.642506
   8 B   5.0000    0    10.810   -2.593779   -0.987676    2.831744
   9 B   5.0000    0    10.810   -1.724856   -4.412750    5.062224
  10 B   5.0000    0    10.810    0.626344   -2.181068    4.556630
  11 B   5.0000    0    10.810    1.124643   -4.150581   -0.029763

      -----------------------------------------------------------      
     |                   =====================                   |     
     |                           x T B                           |     
     |                   =====================                   |     
     |                         S. Grimme                         |     
     |          Mulliken Center for Theoretical Chemistry        |     
     |                    University of Bonn                     |     
      -----------------------------------------------------------      

   * xtb version 6.6.1 (unknown) compiled by 'builduser@buildhost' on 2023-08-07

   xtb is free software: you can redistribute it and/or modify it under
   the terms of the GNU Lesser General Public License as published by
   the Free Software Foundation, either version 3 of the License, or
   (at your option) any later version.
   
   xtb is distributed in the hope that it will be useful,
   but WITHOUT ANY WARRANTY; without even the implied warranty of
   MERCHANTABILITY or FITNESS FOR A PARTICULAR PURPOSE.  See the
   GNU Lesser General Public License for more details.
   
   Cite this work as:
   * C. Bannwarth, E. Caldeweyher, S. Ehlert, A. Hansen, P. Pracht,
     J. Seibert, S. Spicher, S. Grimme, WIREs Comput. Mol. Sci., 2020, 11,
     e01493. DOI: 10.1002/wcms.1493
   
   for GFN2-xTB:
   * C. Bannwarth, S. Ehlert and S. Grimme., J. Chem. Theory Comput., 2019,
     15, 1652-1671. DOI: 10.1021/acs.jctc.8b01176
   for GFN1-xTB:
   * S. Grimme, C. Bannwarth, P. Shushkov, J. Chem. Theory Comput., 2017,
     13, 1989-2009. DOI: 10.1021/acs.jctc.7b00118
   for GFN0-xTB:
   * P. Pracht, E. Caldeweyher, S. Ehlert, S. Grimme, ChemRxiv, 2019, preprint.
     DOI: 10.26434/chemrxiv.8326202.v1
   for GFN-FF:
   * S. Spicher and S. Grimme, Angew. Chem. Int. Ed., 2020, 59, 15665-15673.
     DOI: 10.1002/anie.202004239
   
   for ALPB and GBSA implicit solvation:
   * S. Ehlert, M. Stahn, S. Spicher, S. Grimme, J. Chem. Theory Comput.,
     2021, 17, 4250-4261. DOI: 10.1021/acs.jctc.1c00471
   
   for DFT-D4:
   * E. Caldeweyher, C. Bannwarth and S. Grimme, J. Chem. Phys., 2017,
     147, 034112. DOI: 10.1063/1.4993215
   * E. Caldeweyher, S. Ehlert, A. Hansen, H. Neugebauer, S. Spicher,
     C. Bannwarth and S. Grimme, J. Chem. Phys., 2019, 150, 154122.
     DOI: 10.1063/1.5090222
   * E. Caldeweyher, J.-M. Mewes, S. Ehlert and S. Grimme, Phys. Chem. Chem. Phys.
     2020, 22, 8499-8512. DOI: 10.1039/D0CP00502A
   
   for sTDA-xTB:
   * S. Grimme and C. Bannwarth, J. Chem. Phys., 2016, 145, 054103.
     DOI: 10.1063/1.4959605
   
   in the mass-spec context:
   * V. Asgeirsson, C. Bauer and S. Grimme, Chem. Sci., 2017, 8, 4879.
     DOI: 10.1039/c7sc00601b
   * J. Koopman and S. Grimme, ACS Omega 2019, 4, 12, 15120-15133.
     DOI: 10.1021/acsomega.9b02011
   
   for metadynamics refer to:
   * S. Grimme, J. Chem. Theory Comput., 2019, 155, 2847-2862
     DOI: 10.1021/acs.jctc.9b00143
   
   for SPH calculations refer to:
   * S. Spicher and S. Grimme, J. Chem. Theory Comput., 2021, 17, 1701-1714
     DOI: 10.1021/acs.jctc.0c01306
   
   with help from (in alphabetical order)
   P. Atkinson, C. Bannwarth, F. Bohle, G. Brandenburg, E. Caldeweyher
   M. Checinski, S. Dohm, S. Ehlert, S. Ehrlich, I. Gerasimov, C. Hölzer
   A. Katbashev, J. Koopman, C. Lavigne, S. Lehtola, F. März, M. Müller,
   F. Musil, H. Neugebauer, J. Pisarek, C. Plett, P. Pracht, F. Pultar,
   J. Seibert, P. Shushkov, S. Spicher, M. Stahn, M. Steiner, T. Strunk,
   J. Stückrath, T. Rose, and J. Unsleber
   
 * started run on 2026/04/17 at 12:14:25.110     

           -------------------------------------------------
          |                Calculation Setup                |
           -------------------------------------------------

          program call               : /usr/bin/xtb random_d2.10_010_m1_XTB.xyz --grad -c 0 -u 0 -P 1 --namespace random_d2.10_010_m1 --input random_d2.10_010_m1_XTB.input.tmp --acc 0.200000
          calculation namespace      : random_d2.10_010_m1
          coordinate file            : random_d2.10_010_m1_XTB.xyz
          omp threads                :                     1

   ID    Z sym.   atoms
    1    5 B      1-12

molecular fragmentation (1/2 indicates fragments):
121221222222
# atoms in fragment 1/2:     3     9
 fragment masses (1/2) :       32.43       97.30
CMA distance (Bohr)    :   8.059
constraining FC (au)   :  0.0500

           -------------------------------------------------
          |                 G F N 2 - x T B                 |
           -------------------------------------------------

        Reference                      10.1021/acs.jctc.8b01176
      * Hamiltonian:
        H0-scaling (s, p, d)           1.850000    2.230000    2.230000
        zeta-weighting                 0.500000
      * Dispersion:
        s8                             2.700000
        a1                             0.520000
        a2                             5.000000
        s9                             5.000000
      * Repulsion:
        kExp                           1.500000    1.000000
        rExp                           1.000000
      * Coulomb:
        alpha                          2.000000
        third order                    shell-resolved
        anisotropic                    true
        a3                             3.000000
        a5                             4.000000
        cn-shift                       1.200000
        cn-exp                         4.000000
        max-rad                        5.000000


          ...................................................
          :                      SETUP                      :
          :.................................................:
          :  # basis functions                  48          :
          :  # atomic orbitals                  48          :
          :  # shells                           24          :
          :  # electrons                        36          :
          :  max. iterations                   250          :
          :  Hamiltonian                  GFN2-xTB          :
          :  restarted?                      false          :
          :  GBSA solvation                  false          :
          :  PC potential                    false          :
          :  electronic temp.          300.0000000     K    :
          :  accuracy                    0.2000000          :
          :  -> integral cutoff          0.3198970E+02      :
          :  -> integral neglect         0.2000000E-08      :
          :  -> SCF convergence          0.2000000E-06 Eh   :
          :  -> wf. convergence          0.2000000E-04 e    :
          :  Broyden damping             0.4000000          :
          ...................................................

 iter      E             dE          RMSdq      gap      omega  full diag
   1    -12.9331547 -0.129332E+02  0.194E+01    0.25       0.0  T
   2      1.5951996  0.145284E+02  0.226E+01    0.27       1.0  T
   3      7.7759665  0.618077E+01  0.240E+01    0.98       1.0  T
   4     -8.7805886 -0.165566E+02  0.155E+01    0.10       1.0  T
   5     -3.8027363  0.497785E+01  0.182E+01    0.25       1.0  T
   6     -7.9325588 -0.412982E+01  0.149E+01    0.34       1.0  T
   7     -9.9275656 -0.199501E+01  0.120E+01    0.11       1.0  T
   8    -10.0244792 -0.969136E-01  0.111E+01    0.19       1.0  T
   9    -12.7389346 -0.271446E+01  0.787E+00    0.16       1.0  T
  10    -12.4584529  0.280482E+00  0.763E+00    0.19       1.0  T
  11    -12.9453893 -0.486936E+00  0.645E+00    0.15       1.0  T
  12    -12.9934661 -0.480768E-01  0.624E+00    0.15       1.0  T
  13    -12.9584160  0.350501E-01  0.640E+00    0.12       1.0  T
  14    -13.0862562 -0.127840E+00  0.583E+00    0.12       1.0  T
  15    -13.1127861 -0.265300E-01  0.566E+00    0.14       1.0  T
  16    -12.7578444  0.354942E+00  0.640E+00    0.08       1.0  T
  17    -13.1280443 -0.370200E+00  0.529E+00    0.08       1.0  T
  18    -13.2088751 -0.808307E-01  0.465E+00    0.04       1.0  T
  19    -13.2784754 -0.696004E-01  0.447E+00    0.08       1.0  T
  20    -13.3213993 -0.429239E-01  0.418E+00    0.11       1.0  T
  21    -13.3710246 -0.496253E-01  0.357E+00    0.13       1.0  T
  22    -13.3711543 -0.129708E-03  0.314E+00    0.09       1.0  T
  23    -13.3991607 -0.280064E-01  0.267E+00    0.12       1.0  T
  24    -13.4108926 -0.117319E-01  0.247E+00    0.16       1.0  T
  25    -13.4110337 -0.141094E-03  0.244E+00    0.15       1.0  T
  26    -13.4333306 -0.222969E-01  0.175E+00    0.17       1.0  T
  27    -13.4405282 -0.719759E-02  0.132E+00    0.18       1.0  T
  28    -13.4416310 -0.110273E-02  0.120E+00    0.18       1.0  T
  29    -13.4425046 -0.873613E-03  0.114E+00    0.17       1.0  T
  30    -13.4426334 -0.128812E-03  0.922E-01    0.16       1.0  T
  31    -13.4426885 -0.550696E-04  0.916E-01    0.16       1.0  T
  32    -13.4450725 -0.238409E-02  0.754E-01    0.17       1.0  T
  33    -13.4464876 -0.141506E-02  0.599E-01    0.17       1.0  T
  34    -13.4467682 -0.280549E-03  0.558E-01    0.17       1.0  T
  35    -13.4475684 -0.800289E-03  0.427E-01    0.17       1.0  T
  36    -13.4477946 -0.226147E-03  0.361E-01    0.17       1.0  T
  37    -13.4481321 -0.337514E-03  0.261E-01    0.17       1.0  T
  38    -13.4482063 -0.742154E-04  0.221E-01    0.17       1.0  T
  39    -13.4483498 -0.143469E-03  0.175E-01    0.17       1.0  T
  40    -13.4484102 -0.603834E-04  0.140E-01    0.17       1.0  T
  41    -13.4484675 -0.572870E-04  0.698E-02    0.17       1.0  T
  42    -13.4484708 -0.334060E-05  0.618E-02    0.17       1.0  T
  43    -13.4484757 -0.493495E-05  0.522E-02    0.17       1.0  T
  44    -13.4484795 -0.375851E-05  0.427E-02    0.17       1.0  T
  45    -13.4484825 -0.305646E-05  0.294E-02    0.17       1.0  T
  46    -13.4484846 -0.205030E-05  0.225E-02    0.17       1.3  T
  47    -13.4484863 -0.174536E-05  0.167E-02    0.17       1.7  T
  48    -13.4484876 -0.129588E-05  0.634E-03    0.17       4.6  T
  49    -13.4484877 -0.506404E-07  0.377E-03    0.17       7.7  T
  50    -13.4484878 -0.674510E-07  0.226E-03    0.17      12.8  T
  51    -13.4484878 -0.262253E-07  0.123E-03    0.17      23.5  T
  52    -13.4484878 -0.320953E-08  0.717E-04    0.17      40.3  T
  53    -13.4484878 -0.252866E-08  0.508E-04    0.17      56.8  T
  54    -13.4484878 -0.143787E-08  0.284E-04    0.17     101.8  T
  55    -13.4484878 -0.531754E-09  0.162E-04    0.17     177.7  T
  56    -13.4484878 -0.135849E-09  0.140E-04    0.17     206.2  T

   *** convergence criteria satisfied after 56 iterations ***

         #    Occupation            Energy/Eh            Energy/eV
      -------------------------------------------------------------
         1        2.0000           -0.4053028             -11.0289
       ...           ...                  ...                  ...
        12        2.0000           -0.2768685              -7.5340
        13        2.0000           -0.2696851              -7.3385
        14        2.0000           -0.2571483              -6.9974
        15        2.0000           -0.2516280              -6.8471
        16        2.0000           -0.2488431              -6.7714
        17        1.9938           -0.2378487              -6.4722
        18        1.9299           -0.2355133              -6.4086 (HOMO)
        19        0.0738           -0.2292653              -6.2386 (LUMO)
        20        0.0018           -0.2256918              -6.1414
        21        0.0007           -0.2248444              -6.1183
        22        0.0000           -0.2182152              -5.9379
        23                         -0.2066725              -5.6238
       ...                                ...                  ...
        48                          1.7439158              47.4544
      -------------------------------------------------------------
                  HL-Gap            0.0062480 Eh            0.1700 eV
             Fermi-level           -0.2323640 Eh           -6.3229 eV

 SCC (total)                   0 d,  0 h,  0 min,  0.078 sec
 SCC setup                      ...        0 min,  0.000 sec (  0.217%)
 Dispersion                     ...        0 min,  0.000 sec (  0.121%)
 classical contributions        ...        0 min,  0.000 sec (  0.047%)
 integral evaluation            ...        0 min,  0.003 sec (  3.964%)
 iterations                     ...        0 min,  0.069 sec ( 89.508%)
 molecular gradient             ...        0 min,  0.005 sec (  5.881%)
 printout                       ...        0 min,  0.000 sec (  0.238%)

         :::::::::::::::::::::::::::::::::::::::::::::::::::::
         ::                     SUMMARY                     ::
         :::::::::::::::::::::::::::::::::::::::::::::::::::::
         :: total energy             -13.333480974265 Eh    ::
         :: gradient norm              0.389339594992 Eh/a0 ::
         :: HOMO-LUMO gap              0.170016847978 eV    ::
         ::.................................................::
         :: SCC energy               -13.448487792659 Eh    ::
         :: -> isotropic ES            0.067552472549 Eh    ::
         :: -> anisotropic ES          0.003914715854 Eh    ::
         :: -> anisotropic XC         -0.027011190754 Eh    ::
         :: -> dispersion             -0.019511421621 Eh    ::
         :: repulsion energy           0.114930517578 Eh    ::
         :: add. restraining           0.000000000000 Eh    ::
         :: total charge              -0.000000000000 e     ::
         :::::::::::::::::::::::::::::::::::::::::::::::::::::


Property printout bound to 'properties.out'

           -------------------------------------------------
          | TOTAL ENERGY              -13.333480974265 Eh   |
          | GRADIENT NORM               0.389339594992 Eh/α |
          | HOMO-LUMO GAP               0.170016847978 eV   |
           -------------------------------------------------

------------------------------------------------------------------------
 * finished run on 2026/04/17 at 12:14:25.202     
------------------------------------------------------------------------
 total:
 * wall-time:     0 d,  0 h,  0 min,  0.091 sec
 *  cpu-time:     0 d,  0 h,  0 min,  0.091 sec
 * ratio c/w:     0.999 speedup
 SCF:
 * wall-time:     0 d,  0 h,  0 min,  0.078 sec
 *  cpu-time:     0 d,  0 h,  0 min,  0.078 sec
 * ratio c/w:     1.000 speedup


-------------------------   --------------------
FINAL SINGLE POINT ENERGY       -13.333480974270
-------------------------   --------------------


-------------
DIPOLE MOMENT
-------------
                                X             Y             Z
Total Dipole Moment    :     -0.18600      -0.41800      -0.15300
                        -----------------------------------------
Magnitude (a.u.)       :      0.48242
Magnitude (Debye)      :      1.22621


------------------
CARTESIAN GRADIENT
------------------

   1   B   :    0.056307743    0.027881692   -0.071658004
   2   B   :    0.079379327    0.013803364   -0.156996530
   3   B   :   -0.064061492    0.068408208    0.042489150
   4   B   :   -0.028772508    0.015407503    0.188766508
   5   B   :   -0.033685623   -0.004034977   -0.092854723
   6   B   :   -0.032228046   -0.077175623    0.001033424
   7   B   :    0.054084033    0.032138735   -0.012125704
   8   B   :    0.079898470   -0.019107703    0.047789359
   9   B   :   -0.060093270    0.040709599   -0.034681945
  10   B   :   -0.041130037   -0.103249076    0.050301147
  11   B   :    0.031420017    0.066931498    0.042739014
  12   B   :   -0.041118614   -0.061713220   -0.004801697

Difference to translation invariance:
           :   -0.0000000000    0.0000000000   -0.0000000000

Difference to rotation invariance:
           :    0.0000001068    0.0000000500    0.0000000069

Norm of the Cartesian gradient     ...    0.3893395950
RMS gradient                       ...    0.0648899325
MAX gradient                       ...    0.1887665081
------------------------------------------------------------------------------
                         ORCA GEOMETRY RELAXATION STEP
------------------------------------------------------------------------------

Reading the OPT-File                    .... done
Getting information on internals        .... done
Copying old internal coords+grads       .... done
Making the new internal coordinates     .... (2022 redundants) done
Validating the new internal coordinates .... (2022 redundants) done
Calculating the B-matrix                .... done
Calculating the G,G- and P matrices     .... done
Transforming gradient to internals      .... done
Projecting the internal gradient        .... done
Number of atoms                         ....  12
Number of internal coordinates          .... 159
Current Energy                          ....   -13.333480974 Eh
Current gradient norm                   ....     0.389339595 Eh/bohr
Maximum allowed component of the step   ....  0.300
Current trust radius                    ....  0.300
Evaluating the initial hessian          ....  (Almloef) done
Projecting the Hessian                  .... done
Forming the augmented Hessian           .... done
Diagonalizing the augmented Hessian     .... done
Last element of RFO vector              ....  0.794291114
Lowest eigenvalues of augmented Hessian:
 -0.200733296  0.012643529  0.016471074  0.017629004  0.019598573
Length of the computed step             ....  0.764879946
Warning: the length of the step is outside the trust region - taking restricted step instead
The input lambda is                     ....     0.010864
   iter:   5  x=    0.000962  g= 9712.217494 f(x)=    44.325507
   iter:  10  x=   -0.195953  g=   12.930285 f(x)=     1.153872
   iter:  15  x=   -0.724652  g=    0.210522 f(x)=     0.002655
The output lambda is                    ....    -0.724936 (19 iterations)
The final length of the internal step   ....  0.300000000
Converting the step to Cartesian space:
 Initial RMS(Int)=    0.0237915476
Transforming coordinates:
 Iter   0:  RMS(Cart)=    0.0653386418 RMS(Int)=    0.4949822606
 Iter   5:  RMS(Cart)=    0.0000000351 RMS(Int)=    0.0000000107
done
Storing new coordinates                 .... done

                                .--------------------.
          ----------------------|Geometry convergence|-------------------------
          Item                value                   Tolerance       Converged
          ---------------------------------------------------------------------
          RMS gradient        0.0221225252            0.0000300000      NO
          MAX gradient        0.1074577639            0.0001000000      NO
          RMS step            0.0237915476            0.0006000000      NO
          MAX step            0.1119415025            0.0010000000      NO
          -------------------------------------------------------------------------
          ........................................................
          Max(Bonds)      0.0592      Max(Angles)    4.97
          Max(Dihed)        4.07      Max(Improp)    0.00
          ---------------------------------------------------------------------

The optimization has not yet converged - more geometry cycles are needed


    ---------------------------------------------------------------------------
                         Redundant Internal Coordinates
                            (Angstroem and degrees)

        Definition                    Value    dE/dq     Step     New-Value
    ----------------------------------------------------------------------------
     1. B(B   1,B   0)                2.8989 -0.017740  0.0033    2.9022   
     2. B(B   2,B   0)                1.6620  0.055410 -0.0309    1.6311   
     3. B(B   3,B   0)                2.2517  0.035388 -0.0192    2.2326   
     4. B(B   3,B   1)                1.3309 -0.095428  0.0372    1.3681   
     5. B(B   4,B   3)                2.4514  0.023169 -0.0148    2.4366   
     6. B(B   5,B   1)                2.6612 -0.003923 -0.0010    2.6601   
     7. B(B   5,B   0)                1.7496  0.035366 -0.0209    1.7287   
     8. B(B   5,B   2)                2.0208  0.054406 -0.0326    1.9881   
     9. B(B   5,B   4)                3.1642  0.008018 -0.0077    3.1565   
    10. B(B   5,B   3)                2.4479  0.023569 -0.0141    2.4339   
    11. B(B   6,B   3)                2.8916  0.020200 -0.0118    2.8798   
    12. B(B   6,B   4)                1.6989  0.074244 -0.0412    1.6577   
    13. B(B   7,B   6)                2.0198  0.063002 -0.0422    1.9776   
    14. B(B   8,B   1)                2.8091  0.032017 -0.0213    2.7879   
    15. B(B  10,B   8)                2.0336  0.073089 -0.0487    1.9849   
    16. B(B  10,B   7)                2.2400  0.044056 -0.0321    2.2079   
    17. B(B  10,B   9)                1.7362  0.107458 -0.0592    1.6769   
    18. B(B  11,B  10)                2.6545  0.028475 -0.0221    2.6324   
    19. B(B  11,B   6)                1.7210  0.065103 -0.0368    1.6842   
    20. A(B   1,B   0,B   3)           26.31 -0.018127    0.79     27.10   
    21. A(B   2,B   0,B   5)           72.59  0.000488   -0.09     72.50   
    22. A(B   1,B   0,B   2)           88.21  0.007065   -0.27     87.94   
    23. A(B   3,B   0,B   5)           74.25 -0.006342    0.35     74.60   
    24. A(B   2,B   0,B   3)          114.50 -0.011071    0.52    115.03   
    25. A(B   1,B   0,B   5)           64.40  0.001157    0.01     64.41   
    26. A(B   3,B   1,B   5)           66.18  0.014776   -0.74     65.44   
    27. A(B   0,B   1,B   8)          114.79  0.000700   -0.02    114.78   
    28. A(B   0,B   1,B   5)           36.36  0.008858   -0.48     35.88   
    29. A(B   3,B   1,B   8)          124.00  0.007690   -0.38    123.62   
    30. A(B   0,B   1,B   3)           48.58  0.010880   -0.55     48.03   
    31. A(B   5,B   1,B   8)           78.70 -0.007419    0.43     79.13   
    32. A(B   0,B   2,B   5)           55.71 -0.004981    0.31     56.01   
    33. A(B   1,B   3,B   6)           94.65  0.001040   -0.08     94.57   
    34. A(B   0,B   3,B   5)           43.46  0.003614   -0.24     43.22   
    35. A(B   4,B   3,B   5)           80.46 -0.006272    0.33     80.79   
    36. A(B   0,B   3,B   4)          105.05 -0.010305    0.51    105.56   
    37. A(B   1,B   3,B   5)           83.99  0.006159   -0.18     83.81   
    38. A(B   1,B   3,B   4)          114.81  0.010845   -0.60    114.20   
    39. A(B   0,B   3,B   1)          105.11  0.007248   -0.24    104.87   
    40. A(B   4,B   3,B   6)           35.90  0.013409   -0.79     35.10   
    41. A(B   0,B   3,B   6)          140.81  0.003532   -0.30    140.51   
    42. A(B   5,B   3,B   6)          107.85  0.004454   -0.27    107.58   
    43. A(B   3,B   4,B   6)           86.32 -0.014047    0.88     87.20   
    44. A(B   3,B   4,B   5)           49.72  0.003186   -0.16     49.57   
    45. A(B   5,B   4,B   6)          122.62 -0.008955    0.63    123.24   
    46. A(B   1,B   5,B   4)           67.02 -0.007248    0.22     67.24   
    47. A(B   2,B   5,B   3)           94.99 -0.000718    0.05     95.04   
    48. A(B   0,B   5,B   3)           62.29  0.002728   -0.11     62.18   
    49. A(B   0,B   5,B   2)           51.70  0.004493   -0.22     51.49   
    50. A(B   3,B   5,B   4)           49.82  0.003086   -0.18     49.64   
    51. A(B   2,B   5,B   4)          142.50  0.000995   -0.05    142.45   
    52. A(B   1,B   5,B   3)           29.83 -0.020935    0.92     30.75   
    53. A(B   0,B   5,B   4)           94.52 -0.002726    0.15     94.67   
    54. A(B   1,B   5,B   2)           88.40  0.000510    0.05     88.44   
    55. A(B   0,B   5,B   1)           79.24 -0.010016    0.48     79.71   
    56. A(B   3,B   6,B  11)          105.69  0.012403   -0.90    104.79   
    57. A(B   3,B   6,B   7)          110.37  0.006163   -0.35    110.02   
    58. A(B   3,B   6,B   4)           57.78  0.000638   -0.09     57.70   
    59. A(B   7,B   6,B  11)           75.98 -0.001020    0.09     76.07   
    60. A(B   4,B   6,B  11)           84.72  0.013347   -0.92     83.80   
    61. A(B   4,B   6,B   7)          153.71  0.013413   -0.87    152.84   
    62. A(B   6,B   7,B  10)          103.06 -0.014277    0.94    104.00   
    63. A(B   1,B   8,B  10)           86.35  0.019223   -0.94     85.40   
    64. A(B   7,B  10,B  11)           55.67  0.011027   -0.62     55.05   
    65. A(B   9,B  10,B  11)           86.85  0.006487   -0.63     86.22   
    66. A(B   8,B  10,B  11)           78.16 -0.011851    0.56     78.72   
    67. A(B   8,B  10,B   9)           71.33  0.075411   -4.97     66.36   
    68. A(B   7,B  10,B   9)          126.05 -0.019769    1.32    127.37   
    69. A(B   7,B  10,B   8)          125.61 -0.016261    0.88    126.48   
    70. A(B   6,B  11,B  10)           97.14 -0.006553    0.22     97.36   
    71. D(B   5,B   1,B   0,B   2)     71.53 -0.002803    0.03     71.56   
    72. D(B   3,B   1,B   0,B   2)    178.38 -0.001193    0.02    178.39   
    73. D(B   3,B   1,B   0,B   5)    106.85  0.001610   -0.01    106.84   
    74. D(B   5,B   1,B   0,B   3)   -106.85 -0.001610    0.01   -106.84   
    75. D(B   8,B   1,B   0,B   5)     -7.60 -0.009302    0.55     -7.05   
    76. D(B   8,B   1,B   0,B   2)     63.93 -0.012105    0.57     64.50   
    77. D(B   5,B   2,B   0,B   1)    -63.69  0.001082   -0.09    -63.78   
    78. D(B   5,B   2,B   0,B   3)    -62.90  0.001088   -0.07    -62.97   
    79. D(B   4,B   3,B   1,B   0)   -114.91  0.002363   -0.16   -115.06   
    80. D(B   4,B   3,B   0,B   2)    119.73  0.009747   -0.55    119.18   
    81. D(B   4,B   3,B   1,B   5)    -76.57  0.006333   -0.42    -76.99   
    82. D(B   5,B   3,B   0,B   2)     61.96  0.002600   -0.17     61.78   
    83. D(B   4,B   3,B   1,B   8)    -20.35  0.003593   -0.20    -20.55   
    84. D(B   4,B   3,B   0,B   1)    121.51  0.010908   -0.56    120.95   
    85. D(B   5,B   3,B   0,B   1)     63.74  0.003761   -0.19     63.55   
    86. D(B   5,B   3,B   1,B   8)     56.22 -0.002740    0.22     56.44   
    87. D(B   5,B   3,B   1,B   0)    -38.34 -0.003970    0.26    -38.08   
    88. D(B   1,B   3,B   0,B   2)     -1.78 -0.001161    0.01     -1.77   
    89. D(B   0,B   3,B   1,B   8)     94.56  0.001230   -0.04     94.51   
    90. D(B   1,B   3,B   0,B   5)    -63.74 -0.003761    0.19    -63.55   
    91. D(B   0,B   3,B   1,B   5)     38.34  0.003970   -0.26     38.08   
    92. D(B   4,B   3,B   0,B   5)     57.77  0.007147   -0.37     57.40   
    93. D(B   5,B   4,B   3,B   6)    139.68  0.000652    0.02    139.71   
    94. D(B   6,B   4,B   3,B   0)   -175.84 -0.007502    0.37   -175.47   
    95. D(B   6,B   4,B   3,B   1)    -60.90  0.000306    0.10    -60.80   
    96. D(B   6,B   4,B   3,B   5)   -139.68 -0.000652   -0.02   -139.71   
    97. D(B   5,B   4,B   3,B   0)    -36.16 -0.006851    0.40    -35.76   
    98. D(B   5,B   4,B   3,B   1)     78.78  0.000958    0.13     78.90   
    99. D(B   3,B   5,B   0,B   2)   -122.69  0.009784   -0.47   -123.16   
   100. D(B   2,B   5,B   0,B   1)     96.54  0.007578   -0.27     96.27   
   101. D(B   2,B   5,B   0,B   3)    122.69 -0.009784    0.47    123.16   
   102. D(B   2,B   5,B   4,B   3)     24.01  0.006978   -0.41     23.61   
   103. D(B   2,B   5,B   4,B   6)     74.06 -0.001859    0.10     74.17   
   104. D(B   0,B   5,B   4,B   6)     97.41  0.001534   -0.00     97.41   
   105. D(B   1,B   5,B   3,B   0)   -119.48 -0.001326   -0.02   -119.49   
   106. D(B   2,B   5,B   3,B   6)    170.91 -0.004668    0.31    171.22   
   107. D(B   2,B   5,B   3,B   4)   -165.60  0.003672   -0.22   -165.82   
   108. D(B   2,B   5,B   3,B   0)    -41.53 -0.008648    0.41    -41.12   
   109. D(B   2,B   5,B   3,B   1)     77.94 -0.007322    0.43     78.38   
   110. D(B   0,B   5,B   3,B   6)   -147.56  0.003980   -0.11   -147.66   
   111. D(B   0,B   5,B   3,B   1)    119.48  0.001326    0.02    119.49   
   112. D(B   4,B   5,B   2,B   0)     30.23  0.002637   -0.05     30.17   
   113. D(B   1,B   5,B   2,B   0)     77.53 -0.012599    0.54     78.07   
   114. D(B   3,B   5,B   2,B   0)     48.41  0.008618   -0.40     48.01   
   115. D(B   3,B   5,B   1,B   8)   -135.36 -0.005469    0.31   -135.04   
   116. D(B   0,B   5,B   3,B   4)   -124.07  0.012320   -0.63   -124.70   
   117. D(B   3,B   5,B   1,B   0)     51.68  0.003274   -0.20     51.48   
   118. D(B   2,B   5,B   1,B   8)    121.71 -0.012066    0.69    122.40   
   119. D(B   2,B   5,B   1,B   0)    -51.26 -0.003323    0.18    -51.08   
   120. D(B   2,B   5,B   1,B   3)   -102.94 -0.006596    0.38   -102.56   
   121. D(B   0,B   5,B   1,B   8)    172.97 -0.008743    0.51    173.48   
   122. D(B   0,B   5,B   1,B   3)    -51.68 -0.003274    0.20    -51.48   
   123. D(B   4,B   5,B   0,B   2)   -162.10  0.000974   -0.01   -162.10   
   124. D(B   0,B   5,B   4,B   3)     47.36  0.010370   -0.52     46.85   
   125. D(B   1,B   5,B   0,B   3)     26.15 -0.017363    0.74     26.89   
   126. D(B   1,B   5,B   0,B   2)    -96.54 -0.007578    0.27    -96.27   
   127. D(B   3,B   5,B   4,B   6)     50.05 -0.008836    0.51     50.56   
   128. D(B   1,B   5,B   4,B   6)     21.12  0.012667   -0.50     20.62   
   129. D(B   3,B   5,B   0,B   1)    -26.15  0.017363   -0.74    -26.89   
   130. D(B   7,B   6,B   3,B   1)    -26.42 -0.005789    0.54    -25.88   
   131. D(B   4,B   6,B   3,B   5)     42.09 -0.000350   -0.05     42.04   
   132. D(B   4,B   6,B   3,B   0)      6.36 -0.010715    0.52      6.88   
   133. D(B   4,B   6,B   3,B   1)    127.27  0.006700   -0.28    126.99   
   134. D(B  11,B   6,B   4,B   5)     76.41  0.008243   -0.59     75.82   
   135. D(B  11,B   6,B   4,B   3)    112.29  0.005495   -0.42    111.87   
   136. D(B   7,B   6,B   4,B   5)     33.84  0.001667   -0.08     33.76   
   137. D(B   7,B   6,B   4,B   3)     69.72 -0.001081    0.09     69.81   
   138. D(B   7,B   6,B   3,B   4)   -153.69 -0.012489    0.82   -152.87   
   139. D(B   7,B   6,B   3,B   5)   -111.60 -0.012840    0.77   -110.83   
   140. D(B   3,B   6,B   4,B   5)    -35.88  0.002748   -0.17    -36.05   
   141. D(B   7,B   6,B   3,B   0)   -147.33 -0.023204    1.34   -145.99   
   142. D(B  10,B   7,B   6,B   3)     54.62  0.009013   -0.76     53.86   
   143. D(B  10,B   7,B   6,B  11)    -47.19 -0.002973    0.13    -47.06   
   144. D(B  10,B   7,B   6,B   4)     -3.22  0.005369   -0.52     -3.73   
   145. D(B  10,B   8,B   1,B   0)    154.20  0.026573   -1.38    152.82   
   146. D(B  10,B   8,B   1,B   5)    149.61  0.019896   -0.99    148.62   
   147. D(B  10,B   8,B   1,B   3)     98.77  0.012318   -0.66     98.10   
   148. D(B  11,B  10,B   8,B   1)    -80.56  0.000953   -0.08    -80.64   
   149. D(B   7,B  10,B   8,B   1)    -49.75  0.028744   -1.76    -51.51   
   150. D(B   9,B  10,B   8,B   1)   -171.22  0.006042   -0.27   -171.50   
   151. D(B  11,B  10,B   7,B   6)     33.97  0.006273   -0.28     33.69   
   152. D(B   9,B  10,B   7,B   6)     88.56  0.060172   -4.07     84.49   
   153. D(B   8,B  10,B   7,B   6)     -3.40 -0.021675    1.46     -1.94   
   154. D(B   6,B  11,B  10,B   7)    -40.08 -0.006976    0.49    -39.59   
   155. D(B   6,B  11,B  10,B   9)   -178.78  0.039010   -2.69   -181.47   
   156. D(B   6,B  11,B  10,B   8)    109.64 -0.036592    2.26    111.89   
   157. D(B  10,B  11,B   6,B   3)    -70.18  0.003509   -0.30    -70.48   
   158. D(B  10,B  11,B   6,B   7)     37.43  0.007636   -0.50     36.93   
   159. D(B  10,B  11,B   6,B   4)   -124.58  0.001226   -0.11   -124.70   
    ----------------------------------------------------------------------------

Geometry step timings:
Preparation and reading OPT file:      0.000 s ( 0.555 %)
Internal coordinates            :      0.000 s ( 0.587 %)
B/P matrices and projection     :      0.002 s (20.167 %)
Hessian update/contruction      :      0.001 s (14.570 %)
Making the step                 :      0.004 s (45.770 %)
Converting the step to Cartesian:      0.000 s ( 2.702 %)
Storing new data                :      0.000 s ( 1.111 %)
Checking convergence            :      0.000 s ( 0.609 %)
Final printing                  :      0.001 s (13.897 %)
Total time                      :      0.009 s

Time for energy+gradient        :      0.104 s
Time for complete geometry iter :      0.118 s

         *************************************************************
         *                GEOMETRY OPTIMIZATION CYCLE   2            *
         *************************************************************
---------------------------------
CARTESIAN COORDINATES (ANGSTROEM)
---------------------------------
  B    -0.796232    2.501273   -2.135847
  B     0.195006    1.482123    0.394335
  B    -2.111835    3.039959   -1.336177
  B     0.702421    1.429728   -0.874848
  B     0.847016   -0.819685   -1.800614
  B    -1.626309    1.119888   -1.510520
  B     1.869435   -1.182305   -0.547039
  B     2.263938   -1.512713    1.362590
  B    -1.350605   -0.544690    1.523361
  B    -0.930205   -2.215061    2.579905
  B     0.339513   -1.138338    2.378466
  B     0.597857   -2.160178   -0.033612

----------------------------
CARTESIAN COORDINATES (A.U.)
----------------------------
  NO LB    ZA    FRAG    MASS        X           Y           Z
   0 B   5.0000    0    10.810   -1.504660    4.726721   -4.036166
   1 B   5.0000    0    10.810    0.368509    2.800806    0.745186
   2 B   5.0000    0    10.810   -3.990790    5.744689   -2.525008
   3 B   5.0000    0    10.810    1.327384    2.701795   -1.653224
   4 B   5.0000    0    10.810    1.600627   -1.548980   -3.402668
   5 B   5.0000    0    10.810   -3.073279    2.116282   -2.854468
   6 B   5.0000    0    10.810    3.532721   -2.234233   -1.033754
   7 B   5.0000    0    10.810    4.278222   -2.858614    2.574922
   8 B   5.0000    0    10.810   -2.552274   -1.029316    2.878735
   9 B   5.0000    0    10.810   -1.757833   -4.185858    4.875313
  10 B   5.0000    0    10.810    0.641587   -2.151148    4.494650
  11 B   5.0000    0    10.810    1.129786   -4.082145   -0.063518

      -----------------------------------------------------------      
     |                   =====================                   |     
     |                           x T B                           |     
     |                   =====================                   |     
     |                         S. Grimme                         |     
     |          Mulliken Center for Theoretical Chemistry        |     
     |                    University of Bonn                     |     
      -----------------------------------------------------------      

   * xtb version 6.6.1 (unknown) compiled by 'builduser@buildhost' on 2023-08-07

   xtb is free software: you can redistribute it and/or modify it under
   the terms of the GNU Lesser General Public License as published by
   the Free Software Foundation, either version 3 of the License, or
   (at your option) any later version.
   
   xtb is distributed in the hope that it will be useful,
   but WITHOUT ANY WARRANTY; without even the implied warranty of
   MERCHANTABILITY or FITNESS FOR A PARTICULAR PURPOSE.  See the
   GNU Lesser General Public License for more details.
   
   Cite this work as:
   * C. Bannwarth, E. Caldeweyher, S. Ehlert, A. Hansen, P. Pracht,
     J. Seibert, S. Spicher, S. Grimme, WIREs Comput. Mol. Sci., 2020, 11,
     e01493. DOI: 10.1002/wcms.1493
   
   for GFN2-xTB:
   * C. Bannwarth, S. Ehlert and S. Grimme., J. Chem. Theory Comput., 2019,
     15, 1652-1671. DOI: 10.1021/acs.jctc.8b01176
   for GFN1-xTB:
   * S. Grimme, C. Bannwarth, P. Shushkov, J. Chem. Theory Comput., 2017,
     13, 1989-2009. DOI: 10.1021/acs.jctc.7b00118
   for GFN0-xTB:
   * P. Pracht, E. Caldeweyher, S. Ehlert, S. Grimme, ChemRxiv, 2019, preprint.
     DOI: 10.26434/chemrxiv.8326202.v1
   for GFN-FF:
   * S. Spicher and S. Grimme, Angew. Chem. Int. Ed., 2020, 59, 15665-15673.
     DOI: 10.1002/anie.202004239
   
   for ALPB and GBSA implicit solvation:
   * S. Ehlert, M. Stahn, S. Spicher, S. Grimme, J. Chem. Theory Comput.,
     2021, 17, 4250-4261. DOI: 10.1021/acs.jctc.1c00471
   
   for DFT-D4:
   * E. Caldeweyher, C. Bannwarth and S. Grimme, J. Chem. Phys., 2017,
     147, 034112. DOI: 10.1063/1.4993215
   * E. Caldeweyher, S. Ehlert, A. Hansen, H. Neugebauer, S. Spicher,
     C. Bannwarth and S. Grimme, J. Chem. Phys., 2019, 150, 154122.
     DOI: 10.1063/1.5090222
   * E. Caldeweyher, J.-M. Mewes, S. Ehlert and S. Grimme, Phys. Chem. Chem. Phys.
     2020, 22, 8499-8512. DOI: 10.1039/D0CP00502A
   
   for sTDA-xTB:
   * S. Grimme and C. Bannwarth, J. Chem. Phys., 2016, 145, 054103.
     DOI: 10.1063/1.4959605
   
   in the mass-spec context:
   * V. Asgeirsson, C. Bauer and S. Grimme, Chem. Sci., 2017, 8, 4879.
     DOI: 10.1039/c7sc00601b
   * J. Koopman and S. Grimme, ACS Omega 2019, 4, 12, 15120-15133.
     DOI: 10.1021/acsomega.9b02011
   
   for metadynamics refer to:
   * S. Grimme, J. Chem. Theory Comput., 2019, 155, 2847-2862
     DOI: 10.1021/acs.jctc.9b00143
   
   for SPH calculations refer to:
   * S. Spicher and S. Grimme, J. Chem. Theory Comput., 2021, 17, 1701-1714
     DOI: 10.1021/acs.jctc.0c01306
   
   with help from (in alphabetical order)
   P. Atkinson, C. Bannwarth, F. Bohle, G. Brandenburg, E. Caldeweyher
   M. Checinski, S. Dohm, S. Ehlert, S. Ehrlich, I. Gerasimov, C. Hölzer
   A. Katbashev, J. Koopman, C. Lavigne, S. Lehtola, F. März, M. Müller,
   F. Musil, H. Neugebauer, J. Pisarek, C. Plett, P. Pracht, F. Pultar,
   J. Seibert, P. Shushkov, S. Spicher, M. Stahn, M. Steiner, T. Strunk,
   J. Stückrath, T. Rose, and J. Unsleber
   
 * started run on 2026/04/17 at 12:14:25.227     

           -------------------------------------------------
          |                Calculation Setup                |
           -------------------------------------------------

          program call               : /usr/bin/xtb random_d2.10_010_m1_XTB.xyz --grad -c 0 -u 0 -P 1 --namespace random_d2.10_010_m1 --input random_d2.10_010_m1_XTB.input.tmp --acc 0.200000
          calculation namespace      : random_d2.10_010_m1
          coordinate file            : random_d2.10_010_m1_XTB.xyz
          omp threads                :                     1

   ID    Z sym.   atoms
    1    5 B      1-12

molecular fragmentation (1/2 indicates fragments):
121221222222
# atoms in fragment 1/2:     3     9
 fragment masses (1/2) :       32.43       97.30
CMA distance (Bohr)    :   7.957
constraining FC (au)   :  0.0500

           -------------------------------------------------
          |                 G F N 2 - x T B                 |
           -------------------------------------------------

        Reference                      10.1021/acs.jctc.8b01176
      * Hamiltonian:
        H0-scaling (s, p, d)           1.850000    2.230000    2.230000
        zeta-weighting                 0.500000
      * Dispersion:
        s8                             2.700000
        a1                             0.520000
        a2                             5.000000
        s9                             5.000000
      * Repulsion:
        kExp                           1.500000    1.000000
        rExp                           1.000000
      * Coulomb:
        alpha                          2.000000
        third order                    shell-resolved
        anisotropic                    true
        a3                             3.000000
        a5                             4.000000
        cn-shift                       1.200000
        cn-exp                         4.000000
        max-rad                        5.000000

q/qsh data taken from xtbrestart
CAMM data taken from xtbrestart

          ...................................................
          :                      SETUP                      :
          :.................................................:
          :  # basis functions                  48          :
          :  # atomic orbitals                  48          :
          :  # shells                           24          :
          :  # electrons                        36          :
          :  max. iterations                   250          :
          :  Hamiltonian                  GFN2-xTB          :
          :  restarted?                       true          :
          :  GBSA solvation                  false          :
          :  PC potential                    false          :
          :  electronic temp.          300.0000000     K    :
          :  accuracy                    0.2000000          :
          :  -> integral cutoff          0.3198970E+02      :
          :  -> integral neglect         0.2000000E-08      :
          :  -> SCF convergence          0.2000000E-06 Eh   :
          :  -> wf. convergence          0.2000000E-04 e    :
          :  Broyden damping             0.4000000          :
          ...................................................

 iter      E             dE          RMSdq      gap      omega  full diag
   1    -13.5159698 -0.135160E+02  0.185E+00    0.18       0.0  T
   2    -13.1762078  0.339762E+00  0.405E+00    0.14       1.0  T
   3    -13.0734356  0.102772E+00  0.489E+00    0.29       1.0  T
   4    -13.2557927 -0.182357E+00  0.372E+00    0.17       1.0  T
   5    -13.2594639 -0.367125E-02  0.375E+00    0.16       1.0  T
   6    -13.2229228  0.365411E-01  0.387E+00    0.24       1.0  T
   7    -13.4880641 -0.265141E+00  0.135E+00    0.13       1.0  T
   8    -13.4822967  0.576739E-02  0.143E+00    0.19       1.0  T
   9    -13.5008295 -0.185328E-01  0.112E+00    0.18       1.0  T
  10    -13.5102451 -0.941563E-02  0.883E-01    0.17       1.0  T
  11    -13.5102839 -0.388081E-04  0.848E-01    0.18       1.0  T
  12    -13.5117775 -0.149353E-02  0.804E-01    0.18       1.0  T
  13    -13.5156616 -0.388419E-02  0.585E-01    0.17       1.0  T
  14    -13.5183367 -0.267503E-02  0.435E-01    0.17       1.0  T
  15    -13.5193921 -0.105546E-02  0.337E-01    0.17       1.0  T
  16    -13.5198730 -0.480833E-03  0.274E-01    0.17       1.0  T
  17    -13.5199659 -0.928842E-04  0.265E-01    0.17       1.0  T
  18    -13.5202102 -0.244310E-03  0.219E-01    0.17       1.0  T
  19    -13.5208814 -0.671225E-03  0.904E-02    0.17       1.0  T
  20    -13.5209625 -0.811249E-04  0.680E-02    0.17       1.0  T
  21    -13.5209676 -0.505983E-05  0.645E-02    0.17       1.0  T
  22    -13.5210229 -0.553290E-04  0.104E-02    0.17       2.8  T
  23    -13.5210237 -0.798225E-06  0.511E-03    0.17       5.7  T
  24    -13.5210240 -0.269136E-06  0.277E-03    0.17      10.4  T
  25    -13.5210240 -0.237953E-07  0.133E-03    0.17      21.7  T
  26    -13.5210240 -0.267359E-07  0.536E-04    0.17      53.9  T
  27    -13.5210240 -0.337386E-08  0.216E-04    0.17     133.5  T
  28    -13.5210240 -0.295458E-09  0.166E-04    0.17     173.5  T
  29    -13.5210240 -0.263848E-09  0.721E-05    0.17     400.6  T

   *** convergence criteria satisfied after 29 iterations ***

         #    Occupation            Energy/Eh            Energy/eV
      -------------------------------------------------------------
         1        2.0000           -0.4054339             -11.0324
       ...           ...                  ...                  ...
        12        2.0000           -0.2774048              -7.5486
        13        2.0000           -0.2696336              -7.3371
        14        2.0000           -0.2570987              -6.9960
        15        2.0000           -0.2535190              -6.8986
        16        2.0000           -0.2475319              -6.7357
        17        1.9966           -0.2368072              -6.4439
        18        1.9236           -0.2338160              -6.3625 (HOMO)
        19        0.0795           -0.2277253              -6.1967 (LUMO)
        20        0.0002           -0.2220928              -6.0435
        21        0.0001           -0.2212395              -6.0202
        22                         -0.2122133              -5.7746
        23                         -0.2043897              -5.5617
       ...                                ...                  ...
        48                          1.4900800              40.5471
      -------------------------------------------------------------
                  HL-Gap            0.0060906 Eh            0.1657 eV
             Fermi-level           -0.2307510 Eh           -6.2791 eV

 SCC (total)                   0 d,  0 h,  0 min,  0.041 sec
 SCC setup                      ...        0 min,  0.000 sec (  0.372%)
 Dispersion                     ...        0 min,  0.000 sec (  0.221%)
 classical contributions        ...        0 min,  0.000 sec (  0.085%)
 integral evaluation            ...        0 min,  0.003 sec (  7.770%)
 iterations                     ...        0 min,  0.031 sec ( 76.898%)
 molecular gradient             ...        0 min,  0.006 sec ( 13.934%)
 printout                       ...        0 min,  0.000 sec (  0.667%)

         :::::::::::::::::::::::::::::::::::::::::::::::::::::
         ::                     SUMMARY                     ::
         :::::::::::::::::::::::::::::::::::::::::::::::::::::
         :: total energy             -13.415389752824 Eh    ::
         :: gradient norm              0.331708829184 Eh/a0 ::
         :: HOMO-LUMO gap              0.165734156453 eV    ::
         ::.................................................::
         :: SCC energy               -13.521024025022 Eh    ::
         :: -> isotropic ES            0.072747460923 Eh    ::
         :: -> anisotropic ES          0.004414663861 Eh    ::
         :: -> anisotropic XC         -0.027829041493 Eh    ::
         :: -> dispersion             -0.018839316405 Eh    ::
         :: repulsion energy           0.105565317305 Eh    ::
         :: add. restraining           0.000000000000 Eh    ::
         :: total charge               0.000000000000 e     ::
         :::::::::::::::::::::::::::::::::::::::::::::::::::::


Property printout bound to 'properties.out'

           -------------------------------------------------
          | TOTAL ENERGY              -13.415389752824 Eh   |
          | GRADIENT NORM               0.331708829184 Eh/α |
          | HOMO-LUMO GAP               0.165734156453 eV   |
           -------------------------------------------------

------------------------------------------------------------------------
 * finished run on 2026/04/17 at 12:14:25.281     
------------------------------------------------------------------------
 total:
 * wall-time:     0 d,  0 h,  0 min,  0.054 sec
 *  cpu-time:     0 d,  0 h,  0 min,  0.053 sec
 * ratio c/w:     0.990 speedup
 SCF:
 * wall-time:     0 d,  0 h,  0 min,  0.041 sec
 *  cpu-time:     0 d,  0 h,  0 min,  0.041 sec
 * ratio c/w:     0.991 speedup


-------------------------   --------------------
FINAL SINGLE POINT ENERGY       -13.415389752820
-------------------------   --------------------


-------------
DIPOLE MOMENT
-------------
                                X             Y             Z
Total Dipole Moment    :     -0.33200      -0.40300      -0.14700
                        -----------------------------------------
Magnitude (a.u.)       :      0.54244
Magnitude (Debye)      :      1.37877


------------------
CARTESIAN GRADIENT
------------------

   1   B   :    0.047225325    0.027360330   -0.067481858
   2   B   :    0.057082454    0.018646293   -0.098476614
   3   B   :   -0.058870278    0.068711116    0.039297421
   4   B   :   -0.003939404    0.012960253    0.131133603
   5   B   :   -0.027205176   -0.003609604   -0.089507786
   6   B   :   -0.028896813   -0.077364102   -0.000711083
   7   B   :    0.039906763    0.028661730   -0.020569175
   8   B   :    0.080689127   -0.021202056    0.050303893
   9   B   :   -0.061986754    0.052057733   -0.040434322
  10   B   :   -0.029219336   -0.107794537    0.053466199
  11   B   :    0.019934699    0.059869795    0.045379461
  12   B   :   -0.034720606   -0.058296951   -0.002399739

Difference to translation invariance:
           :   -0.0000000000    0.0000000000   -0.0000000000

Difference to rotation invariance:
           :    0.0000000128    0.0000000464    0.0000000366

Norm of the Cartesian gradient     ...    0.3317088292
RMS gradient                       ...    0.0552848049
MAX gradient                       ...    0.1311336029
------------------------------------------------------------------------------
                         ORCA GEOMETRY RELAXATION STEP
------------------------------------------------------------------------------

Reading the OPT-File                    .... done
Getting information on internals        .... done
Copying old internal coords+grads       .... done
Making the new internal coordinates     .... (2022 redundants) done
Validating the new internal coordinates .... (2022 redundants) done
Calculating the B-matrix                .... done
Calculating the G,G- and P matrices     .... done
Transforming gradient to internals      .... done
Projecting the internal gradient        .... done
Number of atoms                         ....  12
Number of internal coordinates          .... 159
Current Energy                          ....   -13.415389753 Eh
Current gradient norm                   ....     0.331708829 Eh/bohr
Maximum allowed component of the step   ....  0.300
Current trust radius                    ....  0.300
Updating the Hessian (BFGS)             .... done
Forming the augmented Hessian           .... done
Diagonalizing the augmented Hessian     .... done
Last element of RFO vector              ....  0.708462783
Lowest eigenvalues of augmented Hessian:
 -0.270508935  0.012229631  0.015852699  0.017615981  0.019745957
Length of the computed step             ....  0.996168311
Warning: the length of the step is outside the trust region - taking restricted step instead
The input lambda is                     ....     0.000613
   iter:   5  x=   -0.005983  g=1119472.728636 f(x)=  2835.604789
   iter:  10  x=   -0.056132  g= 2556.034682 f(x)=    49.191731
   iter:  15  x=   -0.412174  g=    6.326764 f(x)=     0.813416
   iter:  20  x=   -0.903072  g=    0.200386 f(x)=     0.000471
The output lambda is                    ....    -0.903081 (23 iterations)
The final length of the internal step   ....  0.300000000
Converting the step to Cartesian space:
 Initial RMS(Int)=    0.0237915476
Transforming coordinates:
 Iter   0:  RMS(Cart)=    0.0692491003 RMS(Int)=    0.0237356397
 Iter   5:  RMS(Cart)=    0.0000000926 RMS(Int)=    0.0000000308
done
Storing new coordinates                 .... done
[...]

The optimization has not yet converged - more geometry cycles are needed


    ---------------------------------------------------------------------------
                         Redundant Internal Coordinates
                            (Angstroem and degrees)

        Definition                    Value    dE/dq     Step     New-Value
    ----------------------------------------------------------------------------
     1. B(B   2,B   0)                1.5873  0.000502 -0.0018    1.5855   
     2. B(B   3,B   1)                1.5976 -0.000770  0.0001    1.5977   
     3. B(B   3,B   0)                1.5811  0.000293 -0.0018    1.5793   
     4. B(B   4,B   1)                1.6590 -0.000522  0.0019    1.6609   
     5. B(B   4,B   3)                1.5946  0.000701  0.0009    1.5954   
     6. B(B   5,B   2)                1.4345 -0.000646  0.0004    1.4349   
     7. B(B   5,B   0)                1.5941 -0.000445 -0.0007    1.5933   
     8. B(B   6,B   4)                1.5383  0.000364  0.0003    1.5387   
     9. B(B   7,B   6)                1.5171  0.000124 -0.0005    1.5166   
    10. B(B   8,B   1)                1.5291 -0.001314  0.0007    1.5299   
    11. B(B   9,B   8)                1.5161 -0.000058  0.0005    1.5167   
    12. B(B  10,B   9)                1.5236 -0.000506  0.0013    1.5249   
    13. B(B  10,B   7)                1.5240  0.000346 -0.0007    1.5233   
    14. B(B  11,B   4)                1.7935 -0.000144 -0.0034    1.7901   
    15. B(B  11,B   1)                1.7592 -0.001201  0.0090    1.7682   
    16. B(B  11,B  10)                1.7483 -0.000298 -0.0057    1.7426   
    17. B(B  11,B   9)                1.8211 -0.000261  0.0009    1.8221   
    18. B(B  11,B   8)                1.8125 -0.000177 -0.0007    1.8118   
    19. B(B  11,B   7)                1.8200  0.000053  0.0051    1.8251   
    20. B(B  11,B   6)                1.7867  0.000181 -0.0131    1.7736   
    21. A(B   2,B   0,B   5)           53.60 -0.000249    0.06     53.66   
    22. A(B   2,B   0,B   3)          162.15  0.002768   -1.08    161.07   
    23. A(B   3,B   0,B   5)          144.25 -0.002519    1.07    145.32   
    24. A(B   8,B   1,B  11)           66.47  0.000460   -0.29     66.18   
    25. A(B   3,B   1,B  11)          117.59  0.000726   -0.36    117.23   
    26. A(B   4,B   1,B   8)          129.24  0.000723   -0.44    128.80   
    27. A(B   4,B   1,B  11)           63.22  0.000286   -0.37     62.85   
    28. A(B   3,B   1,B   4)           58.60  0.000494   -0.01     58.59   
    29. A(B   0,B   2,B   5)           63.44 -0.000186    0.01     63.45   
    30. A(B   1,B   3,B   4)           62.62 -0.000188    0.06     62.69   
    31. A(B   0,B   3,B   1)          141.06 -0.000647    0.31    141.36   
    32. A(B   1,B   4,B  11)           61.12 -0.000316    0.39     61.51   
    33. A(B   6,B   4,B  11)           64.32  0.000044   -0.45     63.87   
    34. A(B   1,B   4,B   6)          125.09 -0.000247   -0.15    124.93   
    35. A(B   3,B   4,B  11)          115.82 -0.000565    0.31    116.13   
    36. A(B   1,B   4,B   3)           58.78 -0.000307   -0.05     58.73   
    37. A(B   0,B   5,B   2)           62.96  0.000435   -0.07     62.89   
    38. A(B   4,B   6,B  11)           64.78 -0.000158    0.19     64.98   
    39. A(B   4,B   6,B   7)          130.67 -0.000225    0.75    131.42   
    40. A(B   7,B   6,B  11)           66.27 -0.000046    0.57     66.84   
    41. A(B   6,B   7,B  11)           63.99  0.000037   -0.66     63.32   
    42. A(B   6,B   7,B  10)          125.28 -0.000135   -1.01    124.27   
    43. A(B  10,B   7,B  11)           62.30 -0.000176   -0.36     61.94   
    44. A(B   1,B   8,B   9)          128.23 -0.000253    0.47    128.70   
    45. A(B   9,B   8,B  11)           65.64 -0.000047    0.06     65.70   
    46. A(B   1,B   8,B  11)           62.86 -0.000213    0.40     63.26   
    47. A(B   8,B   9,B  10)          126.14  0.000020   -0.35    125.78   
    48. A(B  10,B   9,B  11)           62.28  0.000024   -0.28     61.99   
    49. A(B   8,B   9,B  11)           65.04  0.000007   -0.07     64.97   
    50. A(B   7,B  10,B  11)           67.18  0.000032    0.39     67.58   
    51. A(B   9,B  10,B  11)           67.24  0.000064    0.17     67.40   
    52. A(B   7,B  10,B   9)          134.42  0.000096    0.69    135.11   
    53. A(B   4,B  11,B   7)          100.42  0.000111    0.35    100.77   
    54. A(B   1,B  11,B   7)          153.91  0.000153    0.39    154.29   
    55. A(B   4,B  11,B   6)           50.89  0.000114    0.26     51.15   
    56. A(B   8,B  11,B  10)           99.11 -0.000053    0.13     99.24   
    57. A(B   1,B  11,B   6)          106.31  0.000160    0.20    106.51   
    58. A(B   7,B  11,B  10)           50.52  0.000143   -0.03     50.49   
    59. A(B   6,B  11,B  10)           99.64  0.000151    0.07     99.71   
    60. A(B   4,B  11,B  10)          147.69  0.000166    0.35    148.04   
    61. A(B   1,B  11,B  10)          147.11 -0.000261    0.06    147.17   
    62. A(B   1,B  11,B   4)           55.66  0.000030   -0.02     55.65   
    63. A(B   8,B  11,B   9)           49.32  0.000040    0.02     49.34   
    64. A(B   7,B  11,B   9)          101.00  0.000055    0.09    101.09   
    65. A(B   6,B  11,B   9)          149.23  0.000076    0.26    149.49   
    66. A(B   4,B  11,B   9)          153.47 -0.000194    0.36    153.82   
    67. A(B   1,B  11,B   9)           99.84 -0.000204   -0.08     99.75   
    68. A(B   7,B  11,B   8)          148.63  0.000090    0.05    148.68   
    69. A(B   6,B  11,B   8)          154.63 -0.000058    0.32    154.96   
    70. A(B   4,B  11,B   8)          106.05 -0.000226   -0.01    106.04   
    71. A(B   1,B  11,B   8)           50.67 -0.000247   -0.11     50.56   
    72. A(B   9,B  11,B  10)           50.48 -0.000088    0.12     50.60   
    73. A(B   6,B  11,B   7)           49.74  0.000009    0.09     49.83   
    74. D(B   5,B   2,B   0,B   3)   -179.83 -0.000803    0.56   -179.27   
    75. D(B   1,B   3,B   0,B   5)    -38.51 -0.001318   -1.12    -39.63   
    76. D(B   1,B   3,B   0,B   2)    141.26 -0.000197   -2.17    139.08   
    77. D(B   0,B   3,B   1,B   4)   -165.41  0.000071    0.86   -164.55   
    78. D(B   0,B   3,B   1,B  11)    170.76 -0.000133    1.05    171.81   
    79. D(B   4,B   3,B   1,B  11)    -23.83 -0.000203    0.19    -23.64   
    80. D(B  11,B   4,B   1,B   8)      8.23  0.000264   -0.60      7.63   
    81. D(B   6,B   4,B   1,B  11)     -7.17  0.000253   -0.09     -7.26   
    82. D(B  11,B   4,B   3,B   1)     22.97 -0.000217    0.08     23.04   
    83. D(B   6,B   4,B   1,B   3)   -163.53  0.000225   -0.12   -163.64   
    84. D(B  11,B   4,B   0,B   5)     -9.89 -0.001235   -0.69    -10.58   
    85. D(B   6,B   4,B   1,B   8)      1.06  0.000516   -0.69      0.37   
    86. D(B   1,B   4,B   0,B   2)    156.13 -0.000144   -0.84    155.28   
    87. D(B  11,B   4,B   1,B   3)   -156.35 -0.000028   -0.03   -156.38   
    88. D(B   3,B   4,B   1,B  11)    156.35  0.000028    0.03    156.38   
    89. D(B  11,B   4,B   0,B   2)    177.29 -0.000646   -0.70    176.59   
    90. D(B   1,B   4,B   0,B   5)    -31.05 -0.000734   -0.83    -31.89   
    91. D(B   3,B   4,B   1,B   8)    164.58  0.000291   -0.57    164.01   
    92. D(B   2,B   5,B   0,B   3)    179.91  0.000440   -0.65    179.26   
    93. D(B  11,B   6,B   4,B   1)      6.97 -0.000269    0.22      7.19   
    94. D(B   7,B   6,B   4,B  11)     -7.65 -0.000197    0.46     -7.18   
    95. D(B   7,B   6,B   3,B   1)     17.90 -0.000266    0.62     18.52   
    96. D(B   7,B   6,B   4,B   1)     -0.68 -0.000466    0.68      0.00   
    97. D(B  11,B   6,B   0,B   5)    -36.72  0.001805   -2.11    -38.83   
    98. D(B  11,B   6,B   0,B   2)    172.81  0.000414   -1.51    171.30   
    99. D(B   7,B   6,B   0,B   2)    176.53  0.000010   -0.94    175.59   
   100. D(B   7,B   6,B   0,B   5)    -33.01  0.001401   -1.54    -34.54   
   101. D(B  11,B   6,B   3,B   1)     15.86 -0.000109    0.11     15.97   
   102. D(B  10,B   7,B   6,B  11)    -11.82  0.000042    0.14    -11.68   
   103. D(B  10,B   7,B   6,B   4)     -4.26  0.000230   -0.34     -4.60   
   104. D(B  11,B   7,B   6,B   4)      7.55  0.000187   -0.48      7.07   
   105. D(B  11,B   8,B   3,B   4)    -16.26 -0.000021    0.27    -15.99   
   106. D(B  11,B   8,B   3,B   0)    173.36  0.000266    0.73    174.10   
   107. D(B   9,B   8,B   3,B   4)    -19.17 -0.000102   -0.33    -19.50   
   108. D(B   9,B   8,B   3,B   0)    170.46  0.000185    0.13    170.59   
   109. D(B  11,B   8,B   1,B   4)     -8.01 -0.000249    0.60     -7.41   
   110. D(B   9,B   8,B   1,B  11)      6.31 -0.000083   -0.32      5.99   
   111. D(B   9,B   8,B   1,B   4)     -1.70 -0.000331    0.28     -1.42   
   112. D(B  10,B   9,B   8,B   1)      6.62  0.000150    0.39      7.01   
   113. D(B  11,B   9,B   8,B   1)     -6.16  0.000090    0.32     -5.84   
   114. D(B  10,B   9,B   8,B  11)     12.79  0.000060    0.06     12.85   
   115. D(B  11,B  10,B   7,B   6)     12.00 -0.000020   -0.17     11.82   
   116. D(B   9,B  10,B   7,B   6)     12.20  0.000063    0.76     12.96   
   117. D(B   7,B  10,B   9,B  11)     -0.20 -0.000083   -0.87     -1.08   
   118. D(B   7,B  10,B   9,B   8)    -13.31 -0.000142   -0.96    -14.27   
   119. D(B  11,B  10,B   9,B   8)    -13.10 -0.000059   -0.09    -13.19   
   120. D(B   9,B  10,B   7,B  11)      0.21  0.000083    0.93      1.13   
   121. D(B   7,B  11,B   4,B   3)    169.02  0.000150   -0.23    168.79   
   122. D(B   7,B  11,B   4,B   1)   -168.58 -0.000065   -0.20   -168.78   
   123. D(B   6,B  11,B   4,B   3)    164.11  0.000004    0.09    164.20   
   124. D(B   1,B  11,B   4,B   6)    173.49  0.000212   -0.11    173.38   
   125. D(B   1,B  11,B   4,B   3)    -22.40  0.000215   -0.03    -22.43   
   126. D(B   8,B  11,B   1,B   3)   -164.22  0.000133    0.25   -163.97   
   127. D(B   7,B  11,B   1,B   8)   -146.79  0.000111   -0.52   -147.31   
   128. D(B   7,B  11,B  10,B   9)   -179.84  0.000064    0.50   -179.34   
   129. D(B   7,B  11,B   1,B   4)     26.27 -0.000014   -0.15     26.12   
   130. D(B   7,B  11,B   1,B   3)     48.99  0.000245   -0.27     48.72   
   131. D(B   6,B  11,B   4,B   1)   -173.49 -0.000212    0.11   -173.38   
   132. D(B   4,B  11,B  10,B   9)    149.95 -0.000392    0.80    150.75   
   133. D(B   4,B  11,B  10,B   7)    -30.21 -0.000456    0.30    -29.91   
   134. D(B   6,B  11,B   1,B   8)   -167.80 -0.000032   -0.28   -168.07   
   135. D(B   7,B  11,B   4,B   6)      4.91  0.000147   -0.31      4.59   
   136. D(B   6,B  11,B   1,B   4)      5.26 -0.000158    0.10      5.36   
   137. D(B   7,B  11,B   9,B   8)    168.48  0.000002    0.18    168.66   
   138. D(B   6,B  11,B   1,B   3)     27.98  0.000101   -0.02     27.96   
   139. D(B   6,B  11,B   9,B   8)    152.31  0.000043    0.23    152.54   
   140. D(B   4,B  11,B   1,B   8)   -173.06  0.000126   -0.37   -173.43   
   141. D(B   4,B  11,B   9,B  10)   -143.19  0.000020   -0.61   -143.80   
   142. D(B   4,B  11,B   9,B   8)     25.16 -0.000029   -0.79     24.37   
   143. D(B   4,B  11,B   1,B   3)     22.72  0.000259   -0.12     22.60   
   144. D(B   1,B  11,B   9,B   8)      4.27 -0.000057   -0.24      4.03   
   145. D(B  10,B  11,B   8,B   1)    165.49  0.000025    0.18    165.67   
   146. D(B   9,B  11,B   8,B   1)    174.56  0.000050    0.31    174.88   
   147. D(B   7,B  11,B   8,B   1)    152.43 -0.000003    0.61    153.04   
   148. D(B   6,B  11,B   8,B   9)   -146.30 -0.000222   -0.70   -146.99   
   149. D(B   6,B  11,B   8,B   1)     28.27 -0.000171   -0.38     27.88   
   150. D(B   4,B  11,B   8,B   1)      5.96  0.000103   -0.32      5.64   
   151. D(B   1,B  11,B   8,B   9)   -174.56 -0.000050   -0.31   -174.88   
   152. D(B   9,B  11,B   7,B   6)   -169.24 -0.000053   -0.31   -169.55   
   153. D(B   8,B  11,B   7,B  10)     16.80  0.000003   -0.52     16.28   
   154. D(B   8,B  11,B   7,B   6)   -152.32  0.000000   -0.52   -152.85   
   155. D(B   6,B  11,B   7,B  10)    169.12  0.000003    0.01    169.12   
   156. D(B   4,B  11,B   7,B  10)    164.13 -0.000154    0.31    164.44   
   157. D(B   4,B  11,B   7,B   6)     -4.99 -0.000157    0.30     -4.69   
   158. D(B   1,B  11,B   7,B  10)    142.32 -0.000159    0.42    142.74   
   159. D(B   4,B  11,B   8,B   9)   -168.60  0.000053   -0.64   -169.24   
   160. D(B   1,B  11,B   7,B   6)    -26.80 -0.000161    0.42    -26.39   
   161. D(B  10,B  11,B   6,B   7)      8.50  0.000019    0.01      8.51   
   162. D(B  10,B  11,B   6,B   4)   -165.17  0.000206   -0.41   -165.58   
   163. D(B   7,B  11,B   8,B   9)    -22.13 -0.000053    0.30    -21.83   
   164. D(B   9,B  11,B   6,B   7)     20.99 -0.000062   -0.18     20.81   
   165. D(B   9,B  11,B   6,B   4)   -152.68  0.000125   -0.59   -153.28   
   166. D(B   8,B  11,B   6,B   7)    145.64  0.000185    0.62    146.26   
   167. D(B   1,B  11,B   9,B  10)   -164.08 -0.000008   -0.06   -164.15   
   168. D(B   8,B  11,B   6,B   4)    -28.04  0.000371    0.21    -27.83   
   169. D(B   7,B  11,B   6,B   4)   -173.67  0.000186   -0.41   -174.09   
   170. D(B   4,B  11,B   6,B   7)    173.67 -0.000186    0.41    174.09   
   171. D(B   6,B  11,B   9,B  10)    -16.04  0.000092    0.41    -15.63   
   172. D(B   1,B  11,B   6,B   7)    168.07 -0.000011    0.35    168.43   
   173. D(B   7,B  11,B   9,B  10)      0.12  0.000051    0.36      0.49   
   174. D(B   1,B  11,B  10,B   7)   -150.32 -0.000292   -0.71   -151.03   
   175. D(B   1,B  11,B  10,B   9)     29.84 -0.000228   -0.21     29.63   
   176. D(B   1,B  11,B   6,B   4)     -5.60  0.000175   -0.06     -5.66   
   177. D(B   8,B  11,B   4,B   6)    167.91  0.000137    0.20    168.11   
   178. D(B   6,B  11,B  10,B   7)     -8.40 -0.000003   -0.02     -8.43   
   179. D(B   6,B  11,B  10,B   9)    171.76  0.000061    0.47    172.23   
   180. D(B   8,B  11,B   4,B   3)    -27.98  0.000141    0.29    -27.70   
   181. D(B   8,B  11,B  10,B   7)   -171.24 -0.000023   -0.38   -171.62   
   182. D(B   8,B  11,B   4,B   1)     -5.58 -0.000075    0.31     -5.27   
    ----------------------------------------------------------------------------

Geometry step timings:
Preparation and reading OPT file:      0.000 s ( 0.380 %)
Internal coordinates            :      0.000 s ( 0.533 %)
B/P matrices and projection     :      0.003 s (24.774 %)
Hessian update/contruction      :      0.003 s (25.746 %)
Making the step                 :      0.004 s (31.597 %)
Converting the step to Cartesian:      0.000 s ( 2.630 %)
Storing new data                :      0.000 s ( 0.710 %)
Checking convergence            :      0.000 s ( 0.668 %)
Final printing                  :      0.002 s (12.962 %)
Total time                      :      0.012 s

Time for energy+gradient        :      0.056 s
Time for complete geometry iter :      0.070 s




    ----------------------------------------------------------------------------
                                  WARNING !!!
       The optimization did not converge but reached the maximum number of
       optimization cycles.
       Please check your results very carefully.
    ----------------------------------------------------------------------------



--------------------------------
SUGGESTED CITATIONS FOR THIS RUN
--------------------------------

Below you find a list of papers that are relevant to this ORCA run
We neither can nor want to force you to cite these papers, but we appreciate if you do
You receive ORCA, which is the product of decades of hard work by many enthusiastic individuals, for free
The only thing we kindly ask in return is that you cite our papers,
We deeply appreciate it, if you show your appreciation for ORCA by not just citing the generic ORCA reference.

Please note that relegating all ORCA citations to the supporting information does *not* help us.
SI sections are not indexed - citations you put there will not count into any citation statistics
But we need these citations in order to attract the funding resources that allow us to do what we are doing

Therefore, if you are a happy ORCA user, please consider citing a few of the papers listed below in the main body of your paper

In addition to the list printed below, the program has created the file random_d2.10_010_m1.bibtex that contains the list in bibtex format
You can import this file easily into all common literature databanks and citation aid programs

It goes without saying that in many instances, there are alternative algorithms to achieve similar
results as the ones you have gotten from ORCA. It is, of course, also the case that in some instances
ORCA just re-implements algorithms worked out by others. We are fully aware of that and we are also
fully appreciative of our colleagues work. Hence this citation list should not be read as indicating
that the listed papers, which are focused on our own work, are the only ones worth citing. It simply
meant to make it easier for users to cite ORCA specific papers. It is not a substitute for doing your
own literature research and citing the relevant literature in a scientifically appropriate manner.

List of essential papers. We consider these as the minimum necessary citations

  1. Bannwarth, C.; Ehlert, S.; Grimme, S.
     GFN2-xTB—An Accurate and Broadly Parametrized Self-Consistent Tight-Binding Quantum Chemical Method with Multipole Electrostatics and Density-Dependent Dispersion Contributions
     J. Chem. Theory Comput. 2019 15(3), 1652-1671
     doi.org/10.1021/acs.jctc.8b01176
  2. Neese, F.
     Software update: the ORCA program system, version 6.0
     WIRES Comput. Molec. Sci. 2025 15(1), e70019
     doi.org/10.1002/wcms.70019

List of papers to cite with high priority. The work reported in these papers was absolutely
necessary for this run to complete.
Our perspective: the developers of density functionals and basis sets usually get cited in chemistry papers
Good! But without the algorithms to do something with them, the functionals or basis sets would not do anything.
Hence, in our opinion, the algorithm design and method developments papers are equally worthy of getting cited

  1. Bannwarth, C.; Caldeweyher, E.; Ehlert, S.; Hansen, A.; Pracht, P.; Seibert, J.; Spicher, S.; Grimme, S.
     Extended tight-binding quantum chemistry methods
     WIRES Comput. Molec. Sci. 2020 11(2), e1493
     doi.org/10.1002/wcms.1493

List of suggested additional citations. These are papers that are important in the 'surrounding' of 
of this run, or papers that preceded the highly important papers. If you like your results we are grateful for a citation.

  1. Neese, F.
     The ORCA program system
     WIRES Comput. Molec. Sci. 2012 2(1), 73-78
     doi.org/10.1002/wcms.81
  2. Neese, F.
     Software update: the ORCA program system, version 4.0
     WIRES Comput. Molec. Sci. 2018 8(1), 1-6
     doi.org/10.1002/wcms.1327
  3. Neese, F.; Wennmohs, F.; Becker, U.; Riplinger, C.
     The ORCA quantum chemistry program package
     J. Chem. Phys. 2020 152(22), 224108
     doi.org/10.1063/5.0004608
  4. Neese, F.
     Software update: The ORCA program system—Version 5.0
     WIRES Comput. Molec. Sci. 2022 12(1), e1606
     doi.org/10.1002/wcms.1606

List of optional additional citations

  1. Neese, F.
     Approximate second-order SCF convergence for spin unrestricted wavefunctions
     Chem. Phys. Lett. 2000 325(1-3), 93-98
     doi.org/10.1016/s0009-2614(00)00662-x

Timings for individual modules:

Sum of individual times          ...        3.146 sec (=   0.052 min)
Geometry relaxation              ...        0.547 sec (=   0.009 min)  17.4 %
XTB module                       ...        2.599 sec (=   0.043 min)  82.6 %
                             ****ORCA TERMINATED NORMALLY****
TOTAL RUN TIME: 0 days 0 hours 0 minutes 3 seconds 656 msec
