
                                 *****************
                                 * O   R   C   A *
                                 *****************

                                            #,                                       
                                            ###                                      
                                            ####                                     
                                            #####                                    
                                            ######                                   
                                           ########,                                 
                                     ,,################,,,,,                         
                               ,,#################################,,                 
                          ,,##########################################,,             
                       ,#########################################, ''#####,          
                    ,#############################################,,   '####,        
                  ,##################################################,,,,####,       
                ,###########''''           ''''###############################       
              ,#####''   ,,,,##########,,,,          '''####'''          '####       
            ,##' ,,,,###########################,,,                        '##       
           ' ,,###''''                  '''############,,,                           
         ,,##''                                '''############,,,,        ,,,,,,###''
      ,#''                                            '''#######################'''  
     '                                                          ''''####''''         
             ,#######,   #######,   ,#######,      ##                                
            ,#'     '#,  ##    ##  ,#'     '#,    #''#        ,####,    ,#,          
            ##       ##  ##   ,#'  ##            #'  '#       #'       ,# #          
            ##       ##  #######   ##           ,######,      #####,      #          
            '#,     ,#'  ##    ##  '#,     ,#' ,#      #,     #,   #      #          
             '#######'   ##     ##  '#######'  #'      '#     '####' #    #          



                #########################################################
                #                        -***-                          #
                #          Department of theory and spectroscopy        #
                #                                                       #
                #                      Frank Neese                      #
                #                                                       #
                #     Directorship, Architecture, Infrastructure        #
                #                    SHARK, DRIVERS                     #
                #        Core code/Algorithms in most modules           #
                #                                                       #
                #        Max Planck Institute fuer Kohlenforschung      #
                #                Kaiser Wilhelm Platz 1                 #
                #                 D-45470 Muelheim/Ruhr                 #
                #                      Germany                          #
                #                                                       #
                #                  All rights reserved                  #
                #                        -***-                          #
                #########################################################


                         Program Version 6.1.1  -  RELEASE   -
                                (GIT: $487d211c$)
                          ($2025-11-21 10:33:24 +0100$)
                                                                         
                                  - NO-DMRG VERSION -                    
                                                                         


 With contributions from (in alphabetic order):
[Max-Planck-Institut fuer Kohlenforschung]                               
  Daniel Aravena         : Magnetic Suceptibility                        
  Michael Atanasov       : Ab Initio Ligand Field Theory (pilot matlab implementation)
  Alexander A. Auer      : GIAO ZORA, VPT2 properties, NMR spectrum      
  Ute Becker             : All parallelization in ORCA, NUMFREQ, NUMCALC 
  Giovanni Bistoni       : ED, misc. LED, open-shell LED, HFLD           
  Dmytro Bykov           : pre 5.0 version of the SCF Hessian            
  Marcos Casanova-Páez   : Triplet and SCS-CIS(D). UHF-(DLPNO)-IP/EA/STEOM-CCSD. UHF-CVS-IP/STEOM-CCSD   
  Vijay G. Chilkuri      : MRCI spin determinant printing, contributions to CSF-ICE 
  Pauline Colinet        : FMM embedding                                 
  Dipayan Datta          : RHF DLPNO-CCSD density                        
  Achintya Kumar Dutta   : EOM-CC, STEOM-CC                              
  Nicolas Foglia         : Exact transition moments, OPA infrastructure, MCD improvements    
  Dmitry Ganyushin       : Spin-Orbit,Spin-Spin,Magnetic field MRCI      
  Miquel Garcia-Rates    : C-PCM and meta-GGA Hessian, CCSD/C-PCM, Gaussian charge scheme 
  Tiago L. C. Gouveia    : GS-ROHF, GS-ROCIS                             
  Yang Guo               : DLPNO-NEVPT2, F12-NEVPT2, CIM, IAO-localization        
  Andreas Hansen         : Spin unrestricted coupled pair/coupled cluster methods 
  Ingolf Harden          : AUTO-CI MPn and infrastructure                
  Benjamin Helmich-Paris : MC-RPA, TRAH-(SCF,CASSCF), AVAS, COSX integrals, SCF dyn. polar., MC-PDFT, srDFT 
  Lee Huntington         : MR-EOM, pCC                                   
  Robert Izsak           : Overlap fitted RIJCOSX, COSX-SCS-MP3, EOM     
  Riya Kayal             : Wick's Theorem for AUTO-CI, AUTO-CI UHF-CCSDT 
  Emily Kempfer          : AUTO-CI RHF CISDT and CCSDT, approximate NEVPT4
  Christian Kollmar      : KDIIS, OOCD, Brueckner-CCSD(T), CCSD density, CASPT2, CASPT2-K, improved NEVPT2 
  Axel Koslowski         : Symmetry handling                             
  Simone Kossmann        : meta-GGA functionals, TD-DFT gradient, OOMP2, (MP2 Hessian; deprecated post 5.0) 
  Lucas Lang             : DCDCAS, Hyperfine gauge corrections, ICE-SOC+SSC
  Marvin Lechner         : AUTO-CI (C++ implementation), FIC-MRCC        
  Spencer Leger          : CASSCF response                               
  Dagmar Lenk            : GEPOL surface, SMD, ORCA-2-JSON               
  Dimitrios Liakos       : Extrapolation schemes; Compound Job, Property file
  Dimitrios Manganas     : Further ROCIS development; embedding schemes. LFT, Crystal Embedding 
  Dimitrios Pantazis     : SARC Basis sets                               
  Anastasios Papadopoulos: AUTO-CI, single reference methods and gradients 
  Taras Petrenko         : pre 6.0 DFT Hessian and TD-DFT gradient,  ECA, NRVS 
  Petra Pikulova         : Analytic Raman intensities                    
  Peter Pinski           : DLPNO-MP2, DLPNO-MP2 Gradient                 
  Shashank Vittal Rao    : ES-AILFT, MagRelax                            
  Christoph Reimann      : Effective Core Potentials                     
  Marius Retegan         : Local ZFS, SOC                                
  Christoph Riplinger    : Optimizer, TS searches, QM/MM, DLPNO-CCSD(T), (RO)-DLPNO pert. Triples 
  Michael Roemelt        : Original ROCIS implementation, recursive CI coupling coefficients
  Masaaki Saitow         : Open-shell DLPNO-CCSD energy and density      
  Barbara Sandhoefer     : DKH picture change effects                    
  Yorick L. A. Schmerwitz: GMF and freeze-and-release deltaSCF, NEB S-IDPP initial path                    
  Kantharuban Sivalingam : CASSCF convergence/infrastructure, NEVPT2, NEVPT3, NEVPT4(SD), FIC-MRCI and CEPA variants
  Bernardo de Souza      : ESD, SOC TD-DFT                               
  Georgi L. Stoychev     : AutoAux, RI-MP2 NMR, DLPNO-MP2 response, X2C  
  Van Anh Tran           : RI-MP2 g-tensors                              
  Willem Van den Heuvel  : Paramagnetic NMR                              
  Zikuan Wang            : NOTCH, Electric field optimization            
  Frank Wennmohs         : Technical directorship and infrastructure     
  Hang Xu                : AUTO-CI-Response properties                   
                                                                         
[FACCTs GmbH]                                                            
  Markus Bursch, Nicolas Foglia, Miquel Garcia-Rates, Ingolf Harden, Hagen Neugebauer, Anastasios Papadopoulos, 
  Christoph Riplinger, Bernardo de Souza, Georgi L. Stoychev                                                    
                                                                 
  APM, various basis sets, CI-OPT, improved COSX, DLPNO-Multilevel,           
  DOCKER, DRACO, updates on ESD, Fragmentator, GOAT, IRC, LR-CPCM, L-BFGS, MBIS, meta-GGA TD-DFT gradient, ML-optimized integration grids, 
  MM, NACMEs, nearIR, NEB, NEB-TS, NL-DFT gradient (VV10), 2- and 3-layer-ONIOM, interface openCOSMO-RS, QMMM,   
  Crystal-QMMM, RESP, rigid body optimization, SF, symmetry and pop. for TD-DFT, various functionals, SOLVATOR                                   
                                                                         
[Other institutions]                                                     
  V. Asgeirsson          : NEB                                           
  Christoph Bannwarth    : sTDA-DFT, sTD-DFT, PBEh-3c, B97-3c, D3        
  Giovanni Bistoni       : ETS/NOCV, ADLD/ADEX, COVALED                  
  Martin Brehm           : Molecular dynamics                            
  Ronald Cardenas        : ETS/NOCV                                      
  Martina Colucci        : COVALED                                       
  Sebastian Ehlert       : rSCAN, r2SCAN, r2SCAN-3c, D4, dhf basis sets  
  Marvin Friede          : D4 for Fr, Ra, Ac-Lr                          
  Lars Goerigk           : TD-DFT with DH, B97 family of functionals     
  Stefan Grimme          : VdW corrections, initial TS optimization, DFT functionals, gCP, sTDA/sTD-DF 
  Waldemar Hujo          : DFT-NL                                        
  H. Jonsson             : NEB                                           
  Holger Kruse           : gCP                                           
  Marcel Mueller         : wB97X-3c, vDZP basis set                      
  Hagen Neugebauer       : wr2SCAN, Native XTB                           
  Gianluca Regni         : ADLD/ADEX                                     
  Tobias Risthaus        : pre 6.0 range-separated hybrid DFT and stability analysis
  Lukas Wittmann         : regularized MP2, r2SCAN double-hybrids, wr2SCAN        
                                                                         
We gratefully acknowledge several colleagues who have allowed us to      
interface, adapt or use parts of their codes:                            
  Ed Valeev, F. Pavosevic, A. Kumar             : LibInt (2-el integral package), F12 methods 
  Garnet Chan, S. Sharma, J. Yang, R. Olivares  : DMRG                   
  Ulf Ekstrom                                   : XCFun DFT Library      
  Mihaly Kallay                                 : mrcc  (arbitrary order and MRCC methods)
  Frank Weinhold                                : gennbo (NPA and NBO analysis)           
  Simon Mueller                                 : openCOSMO-RS                            
  Christopher J. Cramer and Donald G. Truhlar   : smd solvation model                     
  S Lehtola, MJT Oliveira, MAL Marques          : LibXC Library                           
  Liviu Ungur et al                             : ANISO software                          


 Your calculation uses the libint2 library for the computation of 2-el integrals
 For citations please refer to: http://libint.valeyev.net

 Your ORCA version has been built with support for libXC version: 7.0.0
 For citations please refer to: https://libxc.gitlab.io

 This ORCA versions uses:
   CBLAS   interface :  Fast vector & matrix operations
   LAPACKE interface :  Fast linear algebra routines
   SCALAPACK package :  Parallel linear algebra routines
   Shared memory     :  Shared parallel matrices
   BLAS/LAPACK       :  OpenBLAS 0.3.29  USE64BITINT DYNAMIC_ARCH NO_AFFINITY Zen SINGLE_THREADED
        Core in use  :  Zen
   Copyright (c) 2011-2014, The OpenBLAS Project


  ***********************************
  * Starting time: Fri Apr 17 12:14:02 2026
  * Host name:     vmi3233575
  * Process ID:    330657
  * Working dir.:  /root/orca_b12_vps_pack/jobs/01_xtb/mult_1
  ***********************************

NOTE: MaxCore=500 MB was set to SCF,MP2,MDCI,CIPSI,MRCI,RASCI and CIS
      => If you want to overwrite this, your respective input block should be placed after the MaxCore statement


***************************************
The coordinates will be read from file: ../../../starts/random_d1.50_006.xyz
***************************************


Your calculation utilizes the semiempirical GFN2-xTB method
Please cite in your paper:
Bannwarth, C.; Ehlert S.; Grimme, S. J. Chem. Theory Comput. 2019, 15, 1652.
   

================================================================================

================================================================================
                                        WARNINGS
                       Please study these warnings very carefully!
================================================================================


WARNING: Geometry Optimization
  ===> : Switching off AutoStart
         For restart on a previous wavefunction, please use MOREAD

WARNING: Found dipole moment calculation with XTB calculation
  ===> : Switching off dipole moment calculation

Environment variable XTBEXE for xtb has been set!

================================================================================
                                       INPUT FILE
================================================================================
NAME = random_d1.50_006_m1.inp
|  1> ! GFN2-xTB TightSCF TightOpt
|  2> 
|  3> %pal
|  4>   nprocs 1
|  5> end
|  6> 
|  7> %maxcore 500
|  8> 
|  9> * xyzfile 0 1 ../../../starts/random_d1.50_006.xyz
| 10> 
| 11>                          ****END OF INPUT****
================================================================================

                       *****************************
                       * Geometry Optimization Run *
                       *****************************

Geometry optimization settings:
Update method            Update   .... BFGS
Choice of coordinates    CoordSys .... (2022) Redundant Internals
Initial Hessian          InHess   .... Almloef's Model
Max. no of cycles        MaxIter  .... 50

Convergence Tolerances:
Energy Change            TolE     ....  1.0000e-06 Eh
Max. Gradient            TolMAXG  ....  1.0000e-04 Eh/bohr
RMS Gradient             TolRMSG  ....  3.0000e-05 Eh/bohr
Max. Displacement        TolMAXD  ....  1.0000e-03 bohr
RMS Displacement         TolRMSD  ....  6.0000e-04 bohr
Strict Convergence                .... False

------------------------------------------------------------------------------
                        ORCA OPTIMIZATION COORDINATE SETUP
------------------------------------------------------------------------------

The optimization will be done in redundant internal coordinates (2022)
Making redundant internal coordinates   ...  (2022 redundants) done
Evaluating the initial hessian          ...  (Almloef) done
Evaluating the coordinates              ...  done
Calculating the B-matrix                .... done
Calculating the G-matrix                .... done
The number of degrees of freedom        ....  108

    -----------------------------------------------------------------
                    Redundant Internal Coordinates


    -----------------------------------------------------------------
         Definition                    Initial Value    Approx d2E/dq
    -----------------------------------------------------------------
      1. B(B   4,B   2)                  1.8623         0.147849   
      2. B(B   5,B   4)                  1.1735         1.856761   
      3. B(B   6,B   1)                  1.6071         0.377513   
      4. B(B   6,B   3)                  1.7116         0.257178   
      5. B(B   7,B   1)                  1.9019         0.127845   
      6. B(B   8,B   4)                  1.5652         0.440481   
      7. B(B   9,B   1)                  2.0093         0.086156   
      8. B(B   9,B   3)                  1.3722         0.894998   
      9. B(B  10,B   8)                  1.7256         0.244293   
     10. B(B  10,B   6)                  1.9779         0.096680   
     11. B(B  10,B   4)                  1.3774         0.877812   
     12. B(B  10,B   3)                  1.6279         0.349786   
     13. B(B  10,B   2)                  1.4736         0.616519   
     14. B(B  11,B   3)                  1.4045         0.794775   
     15. B(B  11,B   0)                  1.6102         0.373285   
     16. B(B  11,B   9)                  1.2107         1.619746   
     17. A(B   6,B   1,B   9)           72.6707         0.294881   
     18. A(B   7,B   1,B   9)           82.6866         0.250132   
     19. A(B   6,B   1,B   7)           89.8366         0.314118   
     20. A(B   4,B   2,B  10)           47.0121         0.348963   
     21. A(B   9,B   3,B  10)          129.9550         0.432714   
     22. A(B   6,B   3,B  11)          105.4164         0.401099   
     23. A(B   6,B   3,B   9)           88.5850         0.409602   
     24. A(B   6,B   3,B  10)           72.5892         0.348188   
     25. A(B  10,B   3,B  11)           88.5649         0.423598   
     26. A(B   9,B   3,B  11)           51.6849         0.502879   
     27. A(B   5,B   4,B  10)          131.8849         0.588316   
     28. A(B   2,B   4,B  10)           51.4971         0.370608   
     29. A(B   8,B   4,B  10)           71.4842         0.449540   
     30. A(B   5,B   4,B   8)          156.3558         0.516163   
     31. A(B   2,B   4,B   8)           84.7868         0.329914   
     32. A(B   2,B   4,B   5)          106.8304         0.422645   
     33. A(B   3,B   6,B  10)           51.7504         0.282738   
     34. A(B   1,B   6,B  10)          124.9850         0.300322   
     35. A(B   1,B   6,B   3)          101.2388         0.352702   
     36. A(B   4,B   8,B  10)           49.1928         0.358914   
     37. A(B   1,B   9,B   3)           96.9228         0.339304   
     38. A(B   3,B   9,B  11)           65.5346         0.575248   
     39. A(B   1,B   9,B  11)          106.9748         0.375271   
     40. A(B   6,B  10,B   8)          119.8998         0.280497   
     41. A(B   4,B  10,B   8)           59.3231         0.404506   
     42. A(B   3,B  10,B   8)          126.9428         0.345190   
     43. A(B   2,B  10,B   3)          111.5285         0.404907   
     44. A(B   2,B  10,B   8)           92.6923         0.380256   
     45. A(B   4,B  10,B   6)          108.0858         0.344794   
     46. A(B   3,B  10,B   6)           55.6604         0.296704   
     47. A(B   2,B  10,B   6)          146.6831         0.325133   
     48. A(B   3,B  10,B   4)          163.7223         0.431209   
     49. A(B   2,B  10,B   4)           81.4907         0.478048   
     50. A(B   3,B  11,B   9)           62.7805         0.562351   
     51. A(B   0,B  11,B   9)          122.0603         0.487932   
     52. A(B   0,B  11,B   3)          100.5286         0.428558   
     53. D(B   5,B   4,B   2,B  10)    130.5914         0.010000   
     54. D(B   8,B   4,B   2,B  10)    -70.4336         0.010000   
     55. D(B   3,B   6,B   1,B   9)      4.9458         0.010000   
     56. D(B  10,B   6,B   3,B  11)    -83.4714         0.010000   
     57. D(B   3,B   6,B   1,B   7)    -77.4424         0.010000   
     58. D(B  10,B   6,B   1,B   9)     55.7965         0.010000   
     59. D(B  10,B   6,B   3,B   9)   -132.9197         0.010000   
     60. D(B   1,B   6,B   3,B   9)     -6.9239         0.010000   
     61. D(B   1,B   6,B   3,B  10)    125.9958         0.010000   
     62. D(B   1,B   6,B   3,B  11)     42.5244         0.010000   
     63. D(B  10,B   6,B   1,B   7)    -26.5916         0.010000   
     64. D(B  10,B   8,B   4,B   5)    172.1457         0.010000   
     65. D(B  10,B   8,B   4,B   2)     51.0450         0.010000   
     66. D(B   3,B   9,B   1,B   7)     86.0230         0.010000   
     67. D(B   3,B   9,B   1,B   6)     -6.0994         0.010000   
     68. D(B   1,B   9,B   3,B  11)   -105.5371         0.042109   
     69. D(B   1,B   9,B   3,B  10)    -60.2555         0.042109   
     70. D(B  11,B   9,B   3,B   6)    111.0038         0.042109   
     71. D(B   1,B   9,B   3,B   6)      5.4667         0.042109   
     72. D(B  11,B   9,B   3,B  10)     45.2816         0.042109   
     73. D(B  11,B   9,B   1,B   7)     19.5465         0.010000   
     74. D(B  11,B   9,B   1,B   6)    -72.5758         0.010000   
     75. D(B   4,B  10,B   3,B   9)     76.1016         0.010000   
     76. D(B   4,B  10,B   3,B   6)      3.3475         0.010000   
     77. D(B   2,B  10,B   3,B  11)   -108.4207         0.010000   
     78. D(B   2,B  10,B   3,B   9)   -142.3176         0.010000   
     79. D(B   2,B  10,B   3,B   6)    144.9284         0.010000   
     80. D(B   8,B  10,B   2,B   4)     58.4340         0.019176   
     81. D(B   6,B  10,B   2,B   4)   -110.1120         0.019176   
     82. D(B   4,B  10,B   3,B  11)    109.9985         0.010000   
     83. D(B   6,B  10,B   8,B   4)     94.3164         0.010000   
     84. D(B   3,B  10,B   2,B   4)   -169.8564         0.019176   
     85. D(B   8,B  10,B   6,B   1)     40.9434         0.010000   
     86. D(B   4,B  10,B   6,B   3)   -179.0135         0.010000   
     87. D(B   3,B  10,B   6,B   1)    -75.5952         0.010000   
     88. D(B   2,B  10,B   6,B   3)    -76.6889         0.010000   
     89. D(B   2,B  10,B   6,B   1)   -152.2841         0.010000   
     90. D(B   6,B  10,B   4,B   5)     69.6400         0.046356   
     91. D(B   6,B  10,B   4,B   2)    147.1403         0.046356   
     92. D(B   3,B  10,B   4,B   8)   -117.4891         0.046356   
     93. D(B   3,B  10,B   4,B   5)     66.7326         0.046356   
     94. D(B   4,B  10,B   6,B   1)    105.3913         0.010000   
     95. D(B   3,B  10,B   4,B   2)    144.2329         0.046356   
     96. D(B   2,B  10,B   4,B   8)     98.2780         0.046356   
     97. D(B   2,B  10,B   8,B   4)    -78.4554         0.010000   
     98. D(B   3,B  10,B   8,B   4)    161.8741         0.010000   
     99. D(B   2,B  10,B   4,B   5)    -77.5003         0.046356   
    100. D(B   6,B  10,B   3,B   9)     72.7541         0.010000   
    101. D(B   3,B  11,B   9,B   1)     89.9751         0.147938   
    102. D(B   0,B  11,B   9,B   1)    175.4036         0.147938   
    103. D(B   9,B  11,B   3,B  10)   -146.9849         0.032585   
    104. D(B   9,B  11,B   3,B   6)    -75.4903         0.032585   
    105. D(B   0,B  11,B   3,B  10)     92.2487         0.032585   
    106. D(B   0,B  11,B   9,B   3)     85.4284         0.147938   
    107. D(B   0,B  11,B   3,B   9)   -120.7664         0.032585   
    108. D(B   0,B  11,B   3,B   6)    163.7433         0.032585   
    -----------------------------------------------------------------

Number of atoms                         .... 12
Number of degrees of freedom            .... 108


         *************************************************************
         *                GEOMETRY OPTIMIZATION CYCLE   1            *
         *************************************************************
---------------------------------
CARTESIAN COORDINATES (ANGSTROEM)
---------------------------------
  B     0.684552    0.965627   -2.302722
  B    -2.343579    0.638953    0.619722
  B     1.684263   -1.318487   -0.513805
  B    -0.664505   -0.413572   -1.010542
  B     1.254901   -0.815272    1.227074
  B     1.390091   -1.767694    1.899206
  B    -1.386737   -0.648711    0.523331
  B    -0.836827    1.720275    1.041188
  B     1.544780    0.638924    0.726087
  B    -1.513659    0.645638   -1.210185
  B     0.538108   -0.599964    0.070696
  B    -0.351387    0.954283   -1.070049

----------------------------
CARTESIAN COORDINATES (A.U.)
----------------------------
  NO LB    ZA    FRAG    MASS        X           Y           Z
   0 B   5.0000    0    10.810    1.293616    1.824771   -4.351514
   1 B   5.0000    0    10.810   -4.428722    1.207447    1.171105
   2 B   5.0000    0    10.810    3.182795   -2.491580   -0.970950
   3 B   5.0000    0    10.810   -1.255732   -0.781539   -1.909647
   4 B   5.0000    0    10.810    2.371418   -1.540641    2.318833
   5 B   5.0000    0    10.810    2.626891   -3.340458    3.588978
   6 B   5.0000    0    10.810   -2.620553   -1.225885    0.988953
   7 B   5.0000    0    10.810   -1.581374    3.250849    1.967560
   8 B   5.0000    0    10.810    2.919211    1.207392    1.372106
   9 B   5.0000    0    10.810   -2.860401    1.220079   -2.286918
  10 B   5.0000    0    10.810    1.016877   -1.133768    0.133595
  11 B   5.0000    0    10.810   -0.664025    1.803334   -2.022100

      -----------------------------------------------------------      
     |                   =====================                   |     
     |                           x T B                           |     
     |                   =====================                   |     
     |                         S. Grimme                         |     
     |          Mulliken Center for Theoretical Chemistry        |     
     |                    University of Bonn                     |     
      -----------------------------------------------------------      

   * xtb version 6.6.1 (unknown) compiled by 'builduser@buildhost' on 2023-08-07

   xtb is free software: you can redistribute it and/or modify it under
   the terms of the GNU Lesser General Public License as published by
   the Free Software Foundation, either version 3 of the License, or
   (at your option) any later version.
   
   xtb is distributed in the hope that it will be useful,
   but WITHOUT ANY WARRANTY; without even the implied warranty of
   MERCHANTABILITY or FITNESS FOR A PARTICULAR PURPOSE.  See the
   GNU Lesser General Public License for more details.
   
   Cite this work as:
   * C. Bannwarth, E. Caldeweyher, S. Ehlert, A. Hansen, P. Pracht,
     J. Seibert, S. Spicher, S. Grimme, WIREs Comput. Mol. Sci., 2020, 11,
     e01493. DOI: 10.1002/wcms.1493
   
   for GFN2-xTB:
   * C. Bannwarth, S. Ehlert and S. Grimme., J. Chem. Theory Comput., 2019,
     15, 1652-1671. DOI: 10.1021/acs.jctc.8b01176
   for GFN1-xTB:
   * S. Grimme, C. Bannwarth, P. Shushkov, J. Chem. Theory Comput., 2017,
     13, 1989-2009. DOI: 10.1021/acs.jctc.7b00118
   for GFN0-xTB:
   * P. Pracht, E. Caldeweyher, S. Ehlert, S. Grimme, ChemRxiv, 2019, preprint.
     DOI: 10.26434/chemrxiv.8326202.v1
   for GFN-FF:
   * S. Spicher and S. Grimme, Angew. Chem. Int. Ed., 2020, 59, 15665-15673.
     DOI: 10.1002/anie.202004239
   
   for ALPB and GBSA implicit solvation:
   * S. Ehlert, M. Stahn, S. Spicher, S. Grimme, J. Chem. Theory Comput.,
     2021, 17, 4250-4261. DOI: 10.1021/acs.jctc.1c00471
   
   for DFT-D4:
   * E. Caldeweyher, C. Bannwarth and S. Grimme, J. Chem. Phys., 2017,
     147, 034112. DOI: 10.1063/1.4993215
   * E. Caldeweyher, S. Ehlert, A. Hansen, H. Neugebauer, S. Spicher,
     C. Bannwarth and S. Grimme, J. Chem. Phys., 2019, 150, 154122.
     DOI: 10.1063/1.5090222
   * E. Caldeweyher, J.-M. Mewes, S. Ehlert and S. Grimme, Phys. Chem. Chem. Phys.
     2020, 22, 8499-8512. DOI: 10.1039/D0CP00502A
   
   for sTDA-xTB:
   * S. Grimme and C. Bannwarth, J. Chem. Phys., 2016, 145, 054103.
     DOI: 10.1063/1.4959605
   
   in the mass-spec context:
   * V. Asgeirsson, C. Bauer and S. Grimme, Chem. Sci., 2017, 8, 4879.
     DOI: 10.1039/c7sc00601b
   * J. Koopman and S. Grimme, ACS Omega 2019, 4, 12, 15120-15133.
     DOI: 10.1021/acsomega.9b02011
   
   for metadynamics refer to:
   * S. Grimme, J. Chem. Theory Comput., 2019, 155, 2847-2862
     DOI: 10.1021/acs.jctc.9b00143
   
   for SPH calculations refer to:
   * S. Spicher and S. Grimme, J. Chem. Theory Comput., 2021, 17, 1701-1714
     DOI: 10.1021/acs.jctc.0c01306
   
   with help from (in alphabetical order)
   P. Atkinson, C. Bannwarth, F. Bohle, G. Brandenburg, E. Caldeweyher
   M. Checinski, S. Dohm, S. Ehlert, S. Ehrlich, I. Gerasimov, C. Hölzer
   A. Katbashev, J. Koopman, C. Lavigne, S. Lehtola, F. März, M. Müller,
   F. Musil, H. Neugebauer, J. Pisarek, C. Plett, P. Pracht, F. Pultar,
   J. Seibert, P. Shushkov, S. Spicher, M. Stahn, M. Steiner, T. Strunk,
   J. Stückrath, T. Rose, and J. Unsleber
   
 * started run on 2026/04/17 at 12:14:02.651     

           -------------------------------------------------
          |                Calculation Setup                |
           -------------------------------------------------

          program call               : /usr/bin/xtb random_d1.50_006_m1_XTB.xyz --grad -c 0 -u 0 -P 1 --namespace random_d1.50_006_m1 --input random_d1.50_006_m1_XTB.input.tmp --acc 0.200000
          calculation namespace      : random_d1.50_006_m1
          coordinate file            : random_d1.50_006_m1_XTB.xyz
          omp threads                :                     1

   ID    Z sym.   atoms
    1    5 B      1-12

           -------------------------------------------------
          |                 G F N 2 - x T B                 |
           -------------------------------------------------

        Reference                      10.1021/acs.jctc.8b01176
      * Hamiltonian:
        H0-scaling (s, p, d)           1.850000    2.230000    2.230000
        zeta-weighting                 0.500000
      * Dispersion:
        s8                             2.700000
        a1                             0.520000
        a2                             5.000000
        s9                             5.000000
      * Repulsion:
        kExp                           1.500000    1.000000
        rExp                           1.000000
      * Coulomb:
        alpha                          2.000000
        third order                    shell-resolved
        anisotropic                    true
        a3                             3.000000
        a5                             4.000000
        cn-shift                       1.200000
        cn-exp                         4.000000
        max-rad                        5.000000


          ...................................................
          :                      SETUP                      :
          :.................................................:
          :  # basis functions                  48          :
          :  # atomic orbitals                  48          :
          :  # shells                           24          :
          :  # electrons                        36          :
          :  max. iterations                   250          :
          :  Hamiltonian                  GFN2-xTB          :
          :  restarted?                      false          :
          :  GBSA solvation                  false          :
          :  PC potential                    false          :
          :  electronic temp.          300.0000000     K    :
          :  accuracy                    0.2000000          :
          :  -> integral cutoff          0.3198970E+02      :
          :  -> integral neglect         0.2000000E-08      :
          :  -> SCF convergence          0.2000000E-06 Eh   :
          :  -> wf. convergence          0.2000000E-04 e    :
          :  Broyden damping             0.4000000          :
          ...................................................

 iter      E             dE          RMSdq      gap      omega  full diag
   1    -13.2531110 -0.132531E+02  0.195E+01    0.13       0.0  T
   2     -5.3394007  0.791371E+01  0.206E+01    0.34       1.0  T
   3     -0.8861165  0.445328E+01  0.215E+01    0.48       1.0  T
   4     -2.7400716 -0.185396E+01  0.182E+01    0.33       1.0  T
   5     -7.3257821 -0.458571E+01  0.137E+01    0.12       1.0  T
   6     -6.8063261  0.519456E+00  0.141E+01    0.47       1.0  T
   7    -11.9767037 -0.517038E+01  0.103E+01    0.22       1.0  T
   8    -12.1683528 -0.191649E+00  0.930E+00    0.46       1.0  T
   9    -13.2212705 -0.105292E+01  0.873E+00    0.14       1.0  T
  10    -13.2966628 -0.753923E-01  0.822E+00    0.17       1.0  T
  11    -13.2750122  0.216506E-01  0.802E+00    0.17       1.0  T
  12    -13.2889292 -0.139170E-01  0.768E+00    0.16       1.0  T
  13    -13.6255284 -0.336599E+00  0.620E+00    0.12       1.0  T
  14    -13.7106981 -0.851697E-01  0.523E+00    0.08       1.0  T
  15    -13.7247549 -0.140569E-01  0.520E+00    0.08       1.0  T
  16    -13.6181193  0.106636E+00  0.510E+00    0.15       1.0  T
  17    -13.8304280 -0.212309E+00  0.365E+00    0.04       1.0  T
  18    -13.8341653 -0.373732E-02  0.334E+00    0.02       1.0  T
  19    -13.8177227  0.164427E-01  0.344E+00    0.03       1.0  T
  20    -13.8492911 -0.315684E-01  0.321E+00    0.04       1.0  T
  21    -13.8635070 -0.142160E-01  0.301E+00    0.04       1.0  T
  22    -13.9345546 -0.710476E-01  0.154E+00    0.03       1.0  T
  23    -13.9365641 -0.200942E-02  0.133E+00    0.01       1.0  T
  24    -13.9373803 -0.816281E-03  0.132E+00    0.01       1.0  T
  25    -13.9351043  0.227606E-02  0.142E+00    0.01       1.0  T
  26    -13.9399262 -0.482194E-02  0.113E+00    0.03       1.0  T
  27    -13.9367506  0.317558E-02  0.115E+00    0.04       1.0  T
  28    -13.9356649  0.108578E-02  0.121E+00    0.04       1.0  T
  29    -13.9447528 -0.908795E-02  0.550E-01    0.03       1.0  T
  30    -13.9449751 -0.222324E-03  0.558E-01    0.03       1.0  T
  31    -13.9475873 -0.261220E-02  0.297E-01    0.03       1.0  T
  32    -13.9478144 -0.227071E-03  0.254E-01    0.03       1.0  T
  33    -13.9476145  0.199945E-03  0.285E-01    0.03       1.0  T
  34    -13.9481187 -0.504221E-03  0.184E-01    0.03       1.0  T
  35    -13.9481250 -0.632879E-05  0.182E-01    0.03       1.0  T
  36    -13.9482244 -0.994111E-04  0.146E-01    0.03       1.0  T
  37    -13.9483317 -0.107235E-03  0.910E-02    0.03       1.0  T
  38    -13.9483610 -0.293313E-04  0.686E-02    0.03       1.0  T
  39    -13.9483657 -0.472380E-05  0.640E-02    0.03       1.0  T
  40    -13.9483952 -0.295248E-04  0.334E-02    0.03       1.0  T
  41    -13.9484034 -0.815811E-05  0.179E-02    0.03       1.6  T
  42    -13.9484060 -0.263419E-05  0.684E-03    0.03       4.2  T
  43    -13.9484058  0.262738E-06  0.743E-03    0.03       3.9  T
  44    -13.9484061 -0.308080E-06  0.509E-03    0.03       5.7  T
  45    -13.9484062 -0.949966E-07  0.309E-03    0.03       9.3  T
  46    -13.9484062 -0.448043E-08  0.290E-03    0.03      10.0  T
  47    -13.9484062 -0.419304E-07  0.159E-03    0.03      18.1  T
  48    -13.9484062 -0.240539E-07  0.666E-04    0.03      43.4  T
  49    -13.9484062 -0.363698E-08  0.294E-04    0.03      98.3  T
  50    -13.9484062 -0.199153E-09  0.216E-04    0.03     133.5  T
  51    -13.9484062 -0.212664E-09  0.125E-04    0.03     230.5  T
  52    -13.9484062 -0.789981E-10  0.649E-05    0.03     445.0  T

   *** convergence criteria satisfied after 52 iterations ***

         #    Occupation            Energy/Eh            Energy/eV
      -------------------------------------------------------------
         1        2.0000           -0.4406502             -11.9907
       ...           ...                  ...                  ...
        12        2.0000           -0.2714765              -7.3873
        13        2.0000           -0.2694458              -7.3320
        14        2.0000           -0.2602750              -7.0824
        15        2.0000           -0.2333671              -6.3502
        16        2.0000           -0.2298017              -6.2532
        17        1.9837           -0.2194433              -5.9714
        18        1.2538           -0.2153734              -5.8606 (HOMO)
        19        0.7162           -0.2143258              -5.8321 (LUMO)
        20        0.0463           -0.2113252              -5.7505
        21                         -0.1945656              -5.2944
        22                         -0.1887407              -5.1359
        23                         -0.1822758              -4.9600
       ...                                ...                  ...
        48                          3.8441409             104.6044
      -------------------------------------------------------------
                  HL-Gap            0.0010476 Eh            0.0285 eV
             Fermi-level           -0.2148804 Eh           -5.8472 eV

 SCC (total)                   0 d,  0 h,  0 min,  0.055 sec
 SCC setup                      ...        0 min,  0.000 sec (  0.200%)
 Dispersion                     ...        0 min,  0.000 sec (  0.136%)
 classical contributions        ...        0 min,  0.000 sec (  0.054%)
 integral evaluation            ...        0 min,  0.002 sec (  4.458%)
 iterations                     ...        0 min,  0.046 sec ( 84.844%)
 molecular gradient             ...        0 min,  0.005 sec (  9.844%)
 printout                       ...        0 min,  0.000 sec (  0.421%)

         :::::::::::::::::::::::::::::::::::::::::::::::::::::
         ::                     SUMMARY                     ::
         :::::::::::::::::::::::::::::::::::::::::::::::::::::
         :: total energy             -13.230221403442 Eh    ::
         :: gradient norm              1.506678011627 Eh/a0 ::
         :: HOMO-LUMO gap              0.028505679298 eV    ::
         ::.................................................::
         :: SCC energy               -13.948406237535 Eh    ::
         :: -> isotropic ES            0.061356140057 Eh    ::
         :: -> anisotropic ES          0.000318595047 Eh    ::
         :: -> anisotropic XC         -0.022935431491 Eh    ::
         :: -> dispersion             -0.015536820327 Eh    ::
         :: repulsion energy           0.718165256737 Eh    ::
         :: add. restraining           0.000000000000 Eh    ::
         :: total charge              -0.000000000006 e     ::
         :::::::::::::::::::::::::::::::::::::::::::::::::::::


Property printout bound to 'properties.out'

           -------------------------------------------------
          | TOTAL ENERGY              -13.230221403442 Eh   |
          | GRADIENT NORM               1.506678011627 Eh/α |
          | HOMO-LUMO GAP               0.028505679298 eV   |
           -------------------------------------------------

------------------------------------------------------------------------
 * finished run on 2026/04/17 at 12:14:02.718     
------------------------------------------------------------------------
 total:
 * wall-time:     0 d,  0 h,  0 min,  0.067 sec
 *  cpu-time:     0 d,  0 h,  0 min,  0.067 sec
 * ratio c/w:     0.996 speedup
 SCF:
 * wall-time:     0 d,  0 h,  0 min,  0.055 sec
 *  cpu-time:     0 d,  0 h,  0 min,  0.055 sec
 * ratio c/w:     1.000 speedup


-------------------------   --------------------
FINAL SINGLE POINT ENERGY       -13.230221403440
-------------------------   --------------------


-------------
DIPOLE MOMENT
-------------
                                X             Y             Z
Total Dipole Moment    :     -0.22000      -1.09300       0.71000
                        -----------------------------------------
Magnitude (a.u.)       :      1.32180
Magnitude (Debye)      :      3.35974


------------------
CARTESIAN GRADIENT
------------------

   1   B   :    0.011892914   -0.004928619   -0.024540351
   2   B   :   -0.076716557   -0.009179822   -0.004453811
   3   B   :   -0.045931447    0.006966696    0.007110924
   4   B   :   -0.067794254    0.337924199   -0.071535051
   5   B   :   -0.039589524   -0.538303431    0.205709509
   6   B   :   -0.090955381    0.600869867   -0.429439313
   7   B   :    0.023136632   -0.034768799    0.027582305
   8   B   :    0.023299516    0.050694524    0.029673156
   9   B   :    0.030876847   -0.010869489    0.006987907
  10   B   :    0.761465822    0.013147317    0.063221268
  11   B   :    0.147874319   -0.037697982    0.189885613
  12   B   :   -0.677558885   -0.373854460   -0.000202156

Difference to translation invariance:
           :    0.0000000000    0.0000000000    0.0000000000

Difference to rotation invariance:
           :    0.0000000276   -0.0000000088   -0.0000000363

Norm of the Cartesian gradient     ...    1.5066780116
RMS gradient                       ...    0.2511130019
MAX gradient                       ...    0.7614658219
------------------------------------------------------------------------------
                         ORCA GEOMETRY RELAXATION STEP
------------------------------------------------------------------------------

Reading the OPT-File                    .... done
Getting information on internals        .... done
Copying old internal coords+grads       .... done
Making the new internal coordinates     .... (2022 redundants) done
Validating the new internal coordinates .... (2022 redundants) done
Calculating the B-matrix                .... done
Calculating the G,G- and P matrices     .... done
Transforming gradient to internals      .... done
Projecting the internal gradient        .... done
Number of atoms                         ....  12
Number of internal coordinates          .... 108
Current Energy                          ....   -13.230221403 Eh
Current gradient norm                   ....     1.506678012 Eh/bohr
Maximum allowed component of the step   ....  0.300
Current trust radius                    ....  0.300
Evaluating the initial hessian          ....  (Almloef) done
Projecting the Hessian                  .... done
Forming the augmented Hessian           .... done
Diagonalizing the augmented Hessian     .... done
Last element of RFO vector              ....  0.874570760
Lowest eigenvalues of augmented Hessian:
 -0.530783466  0.024116918  0.031389530  0.041043718  0.049279310
Length of the computed step             ....  0.554441030
Warning: the length of the step is outside the trust region - taking restricted step instead
The input lambda is                     ....     0.023058
   iter:   5  x=   -0.000125  g=  787.436632 f(x)=     8.405221
   iter:  10  x=   -0.836800  g=    0.650461 f(x)=     0.291816
   iter:  15  x=   -1.946236  g=    0.055464 f(x)=     0.000002
The output lambda is                    ....    -1.946236 (17 iterations)
The final length of the internal step   ....  0.300000000
Converting the step to Cartesian space:
 Initial RMS(Int)=    0.0288675135
Transforming coordinates:
 Iter   0:  RMS(Cart)=    0.0490957302 RMS(Int)=    0.0288616593
 Iter   5:  RMS(Cart)=    0.0000000090 RMS(Int)=    0.0000000061
done
Storing new coordinates                 .... done

                                .--------------------.
          ----------------------|Geometry convergence|-------------------------
          Item                value                   Tolerance       Converged
          ---------------------------------------------------------------------
          RMS gradient        0.0969998423            0.0000300000      NO
          MAX gradient        0.7441023898            0.0001000000      NO
          RMS step            0.0288675135            0.0006000000      NO
          MAX step            0.1956620896            0.0010000000      NO
          -------------------------------------------------------------------------
          ........................................................
          Max(Bonds)      0.1035      Max(Angles)    1.68
          Max(Dihed)        1.31      Max(Improp)    0.00
          ---------------------------------------------------------------------

The optimization has not yet converged - more geometry cycles are needed


    ---------------------------------------------------------------------------
                         Redundant Internal Coordinates
                            (Angstroem and degrees)

        Definition                    Value    dE/dq     Step     New-Value
    ----------------------------------------------------------------------------
     1. B(B   4,B   2)                1.8623 -0.056417  0.0119    1.8743   
     2. B(B   5,B   4)                1.1735 -0.744102  0.1035    1.2771   
     3. B(B   6,B   1)                1.6071  0.004614 -0.0035    1.6036   
     4. B(B   6,B   3)                1.7116  0.012413 -0.0028    1.7088   
     5. B(B   7,B   1)                1.9019  0.053857 -0.0137    1.8882   
     6. B(B   8,B   4)                1.5652 -0.020442  0.0042    1.5694   
     7. B(B   9,B   1)                2.0093  0.054908 -0.0127    1.9966   
     8. B(B   9,B   3)                1.3722 -0.231709  0.0412    1.4134   
     9. B(B  10,B   8)                1.7256 -0.011372  0.0020    1.7276   
    10. B(B  10,B   6)                1.9779 -0.022016  0.0025    1.9805   
    11. B(B  10,B   4)                1.3774 -0.157443  0.0322    1.4096   
    12. B(B  10,B   3)                1.6279  0.007632  0.0001    1.6280   
    13. B(B  10,B   2)                1.4736 -0.021590  0.0052    1.4788   
    14. B(B  11,B   3)                1.4045 -0.296029  0.0515    1.4560   
    15. B(B  11,B   0)                1.6102  0.026403 -0.0060    1.6042   
    16. B(B  11,B   9)                1.2107 -0.461535  0.0772    1.2879   
    17. A(B   6,B   1,B   9)           72.67 -0.046265    1.03     73.70   
    18. A(B   7,B   1,B   9)           82.69  0.017602   -0.59     82.10   
    19. A(B   6,B   1,B   7)           89.84  0.032502   -0.90     88.93   
    20. A(B   4,B   2,B  10)           47.01 -0.043254    0.94     47.95   
    21. A(B   9,B   3,B  10)          129.95 -0.019402    0.28    130.23   
    22. A(B   6,B   3,B  11)          105.42 -0.015896    0.32    105.73   
    23. A(B   6,B   3,B   9)           88.58  0.024005   -0.44     88.15   
    24. A(B   6,B   3,B  10)           72.59 -0.013388    0.18     72.77   
    25. A(B  10,B   3,B  11)           88.56  0.056605   -0.96     87.61   
    26. A(B   9,B   3,B  11)           51.68 -0.097522    1.68     53.36   
    27. A(B   5,B   4,B  10)          131.88 -0.015007    0.36    132.24   
    28. A(B   2,B   4,B  10)           51.50  0.015606   -0.32     51.17   
    29. A(B   8,B   4,B  10)           71.48  0.036768   -0.83     70.65   
    30. A(B   5,B   4,B   8)          156.36 -0.022475    0.50    156.85   
    31. A(B   2,B   4,B   8)           84.79  0.022991   -0.47     84.31   
    32. A(B   2,B   4,B   5)          106.83 -0.018686    0.40    107.23   
    33. A(B   3,B   6,B  10)           51.75  0.005293   -0.02     51.73   
    34. A(B   1,B   6,B  10)          124.99 -0.011008    0.10    125.09   
    35. A(B   1,B   6,B   3)          101.24 -0.014674    0.20    101.44   
    36. A(B   4,B   8,B  10)           49.19 -0.051754    1.15     50.34   
    37. A(B   1,B   9,B   3)           96.92  0.041360   -0.88     96.04   
    38. A(B   3,B   9,B  11)           65.53  0.028869   -0.50     65.04   
    39. A(B   1,B   9,B  11)          106.97  0.025516   -0.48    106.49   
    40. A(B   6,B  10,B   8)          119.90  0.011594   -0.38    119.52   
    41. A(B   4,B  10,B   8)           59.32  0.014986   -0.32     59.00   
    42. A(B   3,B  10,B   8)          126.94 -0.008543    0.16    127.10   
    43. A(B   2,B  10,B   3)          111.53 -0.023660    0.55    112.08   
    44. A(B   2,B  10,B   8)           92.69  0.011357   -0.20     92.49   
    45. A(B   4,B  10,B   6)          108.09 -0.014351    0.28    108.37   
    46. A(B   3,B  10,B   6)           55.66  0.008094   -0.16     55.50   
    47. A(B   2,B  10,B   6)          146.68 -0.020183    0.52    147.20   
    48. A(B   3,B  10,B   4)          163.72 -0.006140    0.11    163.84   
    49. A(B   2,B  10,B   4)           81.49  0.027648   -0.62     80.87   
    50. A(B   3,B  11,B   9)           62.78  0.068653   -1.18     61.60   
    51. A(B   0,B  11,B   9)          122.06 -0.012565    0.31    122.37   
    52. A(B   0,B  11,B   3)          100.53 -0.045726    0.87    101.40   
    53. D(B   5,B   4,B   2,B  10)    130.59 -0.009330    0.24    130.83   
    54. D(B   8,B   4,B   2,B  10)    -70.43 -0.031714    0.75    -69.68   
    55. D(B   3,B   6,B   1,B   9)      4.95 -0.024602    0.49      5.43   
    56. D(B  10,B   6,B   3,B  11)    -83.47 -0.063242    1.10    -82.37   
    57. D(B   3,B   6,B   1,B   7)    -77.44 -0.031038    0.78    -76.66   
    58. D(B  10,B   6,B   1,B   9)     55.80 -0.025349    0.58     56.38   
    59. D(B  10,B   6,B   3,B   9)   -132.92  0.027766   -0.44   -133.36   
    60. D(B   1,B   6,B   3,B   9)     -6.92  0.023743   -0.47     -7.40   
    61. D(B   1,B   6,B   3,B  10)    126.00 -0.004023   -0.03    125.97   
    62. D(B   1,B   6,B   3,B  11)     42.52 -0.067265    1.07     43.60   
    63. D(B  10,B   6,B   1,B   7)    -26.59 -0.031785    0.88    -25.71   
    64. D(B  10,B   8,B   4,B   5)    172.15 -0.006742    0.21    172.36   
    65. D(B  10,B   8,B   4,B   2)     51.05  0.014067   -0.31     50.74   
    66. D(B   3,B   9,B   1,B   7)     86.02  0.054821   -1.31     84.72   
    67. D(B   3,B   9,B   1,B   6)     -6.10  0.019573   -0.39     -6.49   
    68. D(B   1,B   9,B   3,B  11)   -105.54 -0.009884    0.14   -105.39   
    69. D(B   1,B   9,B   3,B  10)    -60.26 -0.031089    0.66    -59.60   
    70. D(B  11,B   9,B   3,B   6)    111.00 -0.009307    0.24    111.24   
    71. D(B   1,B   9,B   3,B   6)      5.47 -0.019190    0.38      5.85   
    72. D(B  11,B   9,B   3,B  10)     45.28 -0.021206    0.51     45.79   
    73. D(B  11,B   9,B   1,B   7)     19.55  0.013065   -0.54     19.01   
    74. D(B  11,B   9,B   1,B   6)    -72.58 -0.022182    0.37    -72.20   
    75. D(B   4,B  10,B   3,B   9)     76.10  0.023936   -0.37     75.73   
    76. D(B   4,B  10,B   3,B   6)      3.35 -0.008787    0.24      3.59   
    77. D(B   2,B  10,B   3,B  11)   -108.42 -0.046715    0.98   -107.44   
    78. D(B   2,B  10,B   3,B   9)   -142.32  0.020122   -0.27   -142.59   
    79. D(B   2,B  10,B   3,B   6)    144.93 -0.012601    0.35    145.28   
    80. D(B   8,B  10,B   2,B   4)     58.43  0.017057   -0.37     58.06   
    81. D(B   6,B  10,B   2,B   4)   -110.11 -0.008508    0.24   -109.87   
    82. D(B   4,B  10,B   3,B  11)    110.00 -0.042901    0.87    110.87   
    83. D(B   6,B  10,B   8,B   4)     94.32 -0.016772    0.40     94.71   
    84. D(B   3,B  10,B   2,B   4)   -169.86  0.003883   -0.08   -169.93   
    85. D(B   8,B  10,B   6,B   1)     40.94 -0.006484    0.13     41.08   
    86. D(B   4,B  10,B   6,B   3)   -179.01 -0.002306    0.07   -178.95   
    87. D(B   3,B  10,B   6,B   1)    -75.60  0.007261   -0.20    -75.79   
    88. D(B   2,B  10,B   6,B   3)    -76.69  0.014472   -0.33    -77.02   
    89. D(B   2,B  10,B   6,B   1)   -152.28  0.021733   -0.53   -152.81   
    90. D(B   6,B  10,B   4,B   5)     69.64 -0.015648    0.44     70.08   
    91. D(B   6,B  10,B   4,B   2)    147.14 -0.014794    0.39    147.53   
    92. D(B   3,B  10,B   4,B   8)   -117.49 -0.014465    0.40   -117.09   
    93. D(B   3,B  10,B   4,B   5)     66.73 -0.008062    0.23     66.96   
    94. D(B   4,B  10,B   6,B   1)    105.39  0.004955   -0.13    105.26   
    95. D(B   3,B  10,B   4,B   2)    144.23 -0.007208    0.18    144.42   
    96. D(B   2,B  10,B   4,B   8)     98.28 -0.007257    0.22     98.50   
    97. D(B   2,B  10,B   8,B   4)    -78.46 -0.028035    0.65    -77.80   
    98. D(B   3,B  10,B   8,B   4)    161.87 -0.002317    0.02    161.89   
    99. D(B   2,B  10,B   4,B   5)    -77.50 -0.000854    0.04    -77.46   
   100. D(B   6,B  10,B   3,B   9)     72.75  0.032723   -0.62     72.14   
   101. D(B   3,B  11,B   9,B   1)     89.98  0.044368   -0.93     89.04   
   102. D(B   0,B  11,B   9,B   1)    175.40  0.037599   -0.77    174.64   
   103. D(B   9,B  11,B   3,B  10)   -146.98 -0.004004    0.19   -146.79   
   104. D(B   9,B  11,B   3,B   6)    -75.49  0.000840    0.06    -75.43   
   105. D(B   0,B  11,B   3,B  10)     92.25 -0.005969    0.16     92.41   
   106. D(B   0,B  11,B   9,B   3)     85.43 -0.006770    0.17     85.60   
   107. D(B   0,B  11,B   3,B   9)   -120.77 -0.001965   -0.03   -120.80   
   108. D(B   0,B  11,B   3,B   6)    163.74 -0.001125    0.02    163.77   
    ----------------------------------------------------------------------------

Geometry step timings:
Preparation and reading OPT file:      0.000 s ( 0.184 %)
Internal coordinates            :      0.000 s ( 0.228 %)
B/P matrices and projection     :      0.001 s ( 6.699 %)
Hessian update/contruction      :      0.001 s ( 3.451 %)
Making the step                 :      0.002 s (10.232 %)
Converting the step to Cartesian:      0.000 s ( 0.892 %)
Storing new data                :      0.000 s ( 0.412 %)
Checking convergence            :      0.000 s ( 0.252 %)
Final printing                  :      0.016 s (77.636 %)
Total time                      :      0.021 s

Time for energy+gradient        :      0.078 s
Time for complete geometry iter :      0.100 s

         *************************************************************
         *                GEOMETRY OPTIMIZATION CYCLE   2            *
         *************************************************************
---------------------------------
CARTESIAN COORDINATES (ANGSTROEM)
---------------------------------
  B     0.694902    0.996624   -2.317457
  B    -2.350171    0.642558    0.620868
  B     1.684861   -1.317522   -0.516114
  B    -0.681713   -0.421830   -1.010420
  B     1.274197   -0.810982    1.241014
  B     1.438726   -1.839768    1.979531
  B    -1.395846   -0.642636    0.526187
  B    -0.830967    1.699143    0.996045
  B     1.533990    0.645097    0.716085
  B    -1.567750    0.659624   -1.216003
  B     0.529224   -0.599329    0.063194
  B    -0.329453    0.989020   -1.082930

----------------------------
CARTESIAN COORDINATES (A.U.)
----------------------------
  NO LB    ZA    FRAG    MASS        X           Y           Z
   0 B   5.0000    0    10.810    1.313175    1.883347   -4.379359
   1 B   5.0000    0    10.810   -4.441180    1.214259    1.173271
   2 B   5.0000    0    10.810    3.183925   -2.489755   -0.975315
   3 B   5.0000    0    10.810   -1.288250   -0.797143   -1.909418
   4 B   5.0000    0    10.810    2.407883   -1.532534    2.345176
   5 B   5.0000    0    10.810    2.718799   -3.476657    3.740772
   6 B   5.0000    0    10.810   -2.637766   -1.214407    0.994349
   7 B   5.0000    0    10.810   -1.570300    3.210915    1.882253
   8 B   5.0000    0    10.810    2.898820    1.219056    1.353204
   9 B   5.0000    0    10.810   -2.962618    1.246509   -2.297913
  10 B   5.0000    0    10.810    1.000089   -1.132567    0.119419
  11 B   5.0000    0    10.810   -0.622575    1.868977   -2.046441

      -----------------------------------------------------------      
     |                   =====================                   |     
     |                           x T B                           |     
     |                   =====================                   |     
     |                         S. Grimme                         |     
     |          Mulliken Center for Theoretical Chemistry        |     
     |                    University of Bonn                     |     
      -----------------------------------------------------------      

   * xtb version 6.6.1 (unknown) compiled by 'builduser@buildhost' on 2023-08-07

   xtb is free software: you can redistribute it and/or modify it under
   the terms of the GNU Lesser General Public License as published by
   the Free Software Foundation, either version 3 of the License, or
   (at your option) any later version.
   
   xtb is distributed in the hope that it will be useful,
   but WITHOUT ANY WARRANTY; without even the implied warranty of
   MERCHANTABILITY or FITNESS FOR A PARTICULAR PURPOSE.  See the
   GNU Lesser General Public License for more details.
   
   Cite this work as:
   * C. Bannwarth, E. Caldeweyher, S. Ehlert, A. Hansen, P. Pracht,
     J. Seibert, S. Spicher, S. Grimme, WIREs Comput. Mol. Sci., 2020, 11,
     e01493. DOI: 10.1002/wcms.1493
   
   for GFN2-xTB:
   * C. Bannwarth, S. Ehlert and S. Grimme., J. Chem. Theory Comput., 2019,
     15, 1652-1671. DOI: 10.1021/acs.jctc.8b01176
   for GFN1-xTB:
   * S. Grimme, C. Bannwarth, P. Shushkov, J. Chem. Theory Comput., 2017,
     13, 1989-2009. DOI: 10.1021/acs.jctc.7b00118
   for GFN0-xTB:
   * P. Pracht, E. Caldeweyher, S. Ehlert, S. Grimme, ChemRxiv, 2019, preprint.
     DOI: 10.26434/chemrxiv.8326202.v1
   for GFN-FF:
   * S. Spicher and S. Grimme, Angew. Chem. Int. Ed., 2020, 59, 15665-15673.
     DOI: 10.1002/anie.202004239
   
   for ALPB and GBSA implicit solvation:
   * S. Ehlert, M. Stahn, S. Spicher, S. Grimme, J. Chem. Theory Comput.,
     2021, 17, 4250-4261. DOI: 10.1021/acs.jctc.1c00471
   
   for DFT-D4:
   * E. Caldeweyher, C. Bannwarth and S. Grimme, J. Chem. Phys., 2017,
     147, 034112. DOI: 10.1063/1.4993215
   * E. Caldeweyher, S. Ehlert, A. Hansen, H. Neugebauer, S. Spicher,
     C. Bannwarth and S. Grimme, J. Chem. Phys., 2019, 150, 154122.
     DOI: 10.1063/1.5090222
   * E. Caldeweyher, J.-M. Mewes, S. Ehlert and S. Grimme, Phys. Chem. Chem. Phys.
     2020, 22, 8499-8512. DOI: 10.1039/D0CP00502A
   
   for sTDA-xTB:
   * S. Grimme and C. Bannwarth, J. Chem. Phys., 2016, 145, 054103.
     DOI: 10.1063/1.4959605
   
   in the mass-spec context:
   * V. Asgeirsson, C. Bauer and S. Grimme, Chem. Sci., 2017, 8, 4879.
     DOI: 10.1039/c7sc00601b
   * J. Koopman and S. Grimme, ACS Omega 2019, 4, 12, 15120-15133.
     DOI: 10.1021/acsomega.9b02011
   
   for metadynamics refer to:
   * S. Grimme, J. Chem. Theory Comput., 2019, 155, 2847-2862
     DOI: 10.1021/acs.jctc.9b00143
   
   for SPH calculations refer to:
   * S. Spicher and S. Grimme, J. Chem. Theory Comput., 2021, 17, 1701-1714
     DOI: 10.1021/acs.jctc.0c01306
   
   with help from (in alphabetical order)
   P. Atkinson, C. Bannwarth, F. Bohle, G. Brandenburg, E. Caldeweyher
   M. Checinski, S. Dohm, S. Ehlert, S. Ehrlich, I. Gerasimov, C. Hölzer
   A. Katbashev, J. Koopman, C. Lavigne, S. Lehtola, F. März, M. Müller,
   F. Musil, H. Neugebauer, J. Pisarek, C. Plett, P. Pracht, F. Pultar,
   J. Seibert, P. Shushkov, S. Spicher, M. Stahn, M. Steiner, T. Strunk,
   J. Stückrath, T. Rose, and J. Unsleber
   
 * started run on 2026/04/17 at 12:14:02.761     

           -------------------------------------------------
          |                Calculation Setup                |
           -------------------------------------------------

          program call               : /usr/bin/xtb random_d1.50_006_m1_XTB.xyz --grad -c 0 -u 0 -P 1 --namespace random_d1.50_006_m1 --input random_d1.50_006_m1_XTB.input.tmp --acc 0.200000
          calculation namespace      : random_d1.50_006_m1
          coordinate file            : random_d1.50_006_m1_XTB.xyz
          omp threads                :                     1

   ID    Z sym.   atoms
    1    5 B      1-12

           -------------------------------------------------
          |                 G F N 2 - x T B                 |
           -------------------------------------------------

        Reference                      10.1021/acs.jctc.8b01176
      * Hamiltonian:
        H0-scaling (s, p, d)           1.850000    2.230000    2.230000
        zeta-weighting                 0.500000
      * Dispersion:
        s8                             2.700000
        a1                             0.520000
        a2                             5.000000
        s9                             5.000000
      * Repulsion:
        kExp                           1.500000    1.000000
        rExp                           1.000000
      * Coulomb:
        alpha                          2.000000
        third order                    shell-resolved
        anisotropic                    true
        a3                             3.000000
        a5                             4.000000
        cn-shift                       1.200000
        cn-exp                         4.000000
        max-rad                        5.000000

q/qsh data taken from xtbrestart
CAMM data taken from xtbrestart

          ...................................................
          :                      SETUP                      :
          :.................................................:
          :  # basis functions                  48          :
          :  # atomic orbitals                  48          :
          :  # shells                           24          :
          :  # electrons                        36          :
          :  max. iterations                   250          :
          :  Hamiltonian                  GFN2-xTB          :
          :  restarted?                       true          :
          :  GBSA solvation                  false          :
          :  PC potential                    false          :
          :  electronic temp.          300.0000000     K    :
          :  accuracy                    0.2000000          :
          :  -> integral cutoff          0.3198970E+02      :
          :  -> integral neglect         0.2000000E-08      :
          :  -> SCF convergence          0.2000000E-06 Eh   :
          :  -> wf. convergence          0.2000000E-04 e    :
          :  Broyden damping             0.4000000          :
          ...................................................

 iter      E             dE          RMSdq      gap      omega  full diag
   1    -13.8986621 -0.138987E+02  0.182E+00    0.03       0.0  T
   2    -12.7290321  0.116963E+01  0.755E+00    0.07       1.0  T
   3    -13.7616953 -0.103266E+01  0.297E+00    0.07       1.0  T
   4    -13.6052492  0.156446E+00  0.454E+00    0.16       1.0  T
   5    -13.8111721 -0.205923E+00  0.274E+00    0.03       1.0  T
   6    -13.8621644 -0.509923E-01  0.196E+00    0.06       1.0  T
   7    -13.6793834  0.182781E+00  0.409E+00    0.08       1.0  T
   8    -13.8409776 -0.161594E+00  0.243E+00    0.05       1.0  T
   9    -13.8327047  0.827291E-02  0.251E+00    0.04       1.0  T
  10    -13.8599668 -0.272622E-01  0.209E+00    0.04       1.0  T
  11    -13.8847479 -0.247811E-01  0.167E+00    0.04       1.0  T
  12    -13.9034163 -0.186684E-01  0.125E+00    0.06       1.0  T
  13    -13.9092340 -0.581763E-02  0.911E-01    0.05       1.0  T
  14    -13.9212783 -0.120444E-01  0.399E-01    0.05       1.0  T
  15    -13.9225749 -0.129654E-02  0.304E-01    0.05       1.0  T
  16    -13.9223653  0.209604E-03  0.310E-01    0.04       1.0  T
  17    -13.9221247  0.240557E-03  0.317E-01    0.04       1.0  T
  18    -13.9217530  0.371749E-03  0.328E-01    0.05       1.0  T
  19    -13.9230708 -0.131782E-02  0.179E-01    0.04       1.0  T
  20    -13.9231420 -0.712233E-04  0.148E-01    0.04       1.0  T
  21    -13.9230607  0.812693E-04  0.159E-01    0.04       1.0  T
  22    -13.9231169 -0.561615E-04  0.140E-01    0.04       1.0  T
  23    -13.9232885 -0.171635E-03  0.575E-02    0.04       1.0  T
  24    -13.9232940 -0.545310E-05  0.591E-02    0.04       1.0  T
  25    -13.9233045 -0.105340E-04  0.470E-02    0.04       1.0  T
  26    -13.9233180 -0.134491E-04  0.360E-02    0.04       1.0  T
  27    -13.9232854  0.325302E-04  0.628E-02    0.04       1.0  T
  28    -13.9232972 -0.117974E-04  0.493E-02    0.04       1.0  T
  29    -13.9233219 -0.246165E-04  0.178E-02    0.04       1.6  T
  30    -13.9233244 -0.258147E-05  0.818E-03    0.04       3.5  T
  31    -13.9233248 -0.384489E-06  0.499E-03    0.04       5.8  T
  32    -13.9233249 -0.691133E-07  0.237E-03    0.04      12.2  T
  33    -13.9233249 -0.333507E-07  0.149E-03    0.04      19.4  T
  34    -13.9233249 -0.133639E-07  0.106E-03    0.04      27.3  T
  35    -13.9233249 -0.985109E-08  0.179E-04    0.04     160.9  T
  36    -13.9233249 -0.261100E-09  0.807E-05    0.04     357.5  T

   *** convergence criteria satisfied after 36 iterations ***

         #    Occupation            Energy/Eh            Energy/eV
      -------------------------------------------------------------
         1        2.0000           -0.4388187             -11.9409
       ...           ...                  ...                  ...
        12        2.0000           -0.2716844              -7.3929
        13        2.0000           -0.2693332              -7.3289
        14        2.0000           -0.2631566              -7.1609
        15        2.0000           -0.2346566              -6.3853
        16        2.0000           -0.2304358              -6.2705
        17        1.9937           -0.2214288              -6.0254
        18        1.3556           -0.2166688              -5.8959 (HOMO)
        19        0.5896           -0.2151335              -5.8541 (LUMO)
        20        0.0611           -0.2126780              -5.7873
        21        0.0000           -0.2008397              -5.4651
        22                         -0.1912347              -5.2038
        23                         -0.1838786              -5.0036
       ...                                ...                  ...
        48                          2.5363548              69.0177
      -------------------------------------------------------------
                  HL-Gap            0.0015352 Eh            0.0418 eV
             Fermi-level           -0.2159622 Eh           -5.8766 eV

 SCC (total)                   0 d,  0 h,  0 min,  0.047 sec
 SCC setup                      ...        0 min,  0.000 sec (  0.319%)
 Dispersion                     ...        0 min,  0.000 sec (  0.202%)
 classical contributions        ...        0 min,  0.000 sec (  0.115%)
 integral evaluation            ...        0 min,  0.005 sec ( 10.708%)
 iterations                     ...        0 min,  0.035 sec ( 75.990%)
 molecular gradient             ...        0 min,  0.006 sec ( 11.966%)
 printout                       ...        0 min,  0.000 sec (  0.647%)

         :::::::::::::::::::::::::::::::::::::::::::::::::::::
         ::                     SUMMARY                     ::
         :::::::::::::::::::::::::::::::::::::::::::::::::::::
         :: total energy             -13.455469879901 Eh    ::
         :: gradient norm              0.843299027181 Eh/a0 ::
         :: HOMO-LUMO gap              0.041775382979 eV    ::
         ::.................................................::
         :: SCC energy               -13.923324942345 Eh    ::
         :: -> isotropic ES            0.063212678285 Eh    ::
         :: -> anisotropic ES          0.000144330230 Eh    ::
         :: -> anisotropic XC         -0.022616300599 Eh    ::
         :: -> dispersion             -0.015308062886 Eh    ::
         :: repulsion energy           0.467835012260 Eh    ::
         :: add. restraining           0.000000000000 Eh    ::
         :: total charge              -0.000000000525 e     ::
         :::::::::::::::::::::::::::::::::::::::::::::::::::::


Property printout bound to 'properties.out'

           -------------------------------------------------
          | TOTAL ENERGY              -13.455469879901 Eh   |
          | GRADIENT NORM               0.843299027181 Eh/α |
          | HOMO-LUMO GAP               0.041775382979 eV   |
           -------------------------------------------------

------------------------------------------------------------------------
 * finished run on 2026/04/17 at 12:14:02.820     
------------------------------------------------------------------------
 total:
 * wall-time:     0 d,  0 h,  0 min,  0.060 sec
 *  cpu-time:     0 d,  0 h,  0 min,  0.060 sec
 * ratio c/w:     1.000 speedup
 SCF:
 * wall-time:     0 d,  0 h,  0 min,  0.047 sec
 *  cpu-time:     0 d,  0 h,  0 min,  0.047 sec
 * ratio c/w:     0.999 speedup


-------------------------   --------------------
FINAL SINGLE POINT ENERGY       -13.455469879900
-------------------------   --------------------


-------------
DIPOLE MOMENT
-------------
                                X             Y             Z
Total Dipole Moment    :     -0.06600      -0.96900       0.69300
                        -----------------------------------------
Magnitude (a.u.)       :      1.19313
Magnitude (Debye)      :      3.03270


------------------
CARTESIAN GRADIENT
------------------

   1   B   :    0.012055114   -0.005247642   -0.023491344
   2   B   :   -0.074754299   -0.009894000    0.003732558
   3   B   :   -0.042470413    0.008159224   -0.000589618
   4   B   :   -0.043731080    0.233175638   -0.060668200
   5   B   :   -0.063134562   -0.213693205    0.016113665
   6   B   :   -0.046707006    0.257055665   -0.186356049
   7   B   :    0.019538143   -0.033048095    0.028712199
   8   B   :    0.019929257    0.050424608    0.033589408
   9   B   :    0.034349828   -0.004364927    0.001871395
  10   B   :    0.467261997   -0.010756899    0.013188580
  11   B   :    0.123762672   -0.028536469    0.151959231
  12   B   :   -0.406099651   -0.243273899    0.021938175

Difference to translation invariance:
           :    0.0000000000    0.0000000000   -0.0000000000

Difference to rotation invariance:
           :    0.0000000217   -0.0000000070    0.0000000287

Norm of the Cartesian gradient     ...    0.8432990272
RMS gradient                       ...    0.1405498379
MAX gradient                       ...    0.4672619972
------------------------------------------------------------------------------
                         ORCA GEOMETRY RELAXATION STEP
------------------------------------------------------------------------------

Reading the OPT-File                    .... done
Getting information on internals        .... done
Copying old internal coords+grads       .... done
Making the new internal coordinates     .... (2022 redundants) done
Validating the new internal coordinates .... (2022 redundants) done
Calculating the B-matrix                .... done
Calculating the G,G- and P matrices     .... done
Transforming gradient to internals      .... done
Projecting the internal gradient        .... done
Number of atoms                         ....  12
Number of internal coordinates          .... 108
Current Energy                          ....   -13.455469880 Eh
Current gradient norm                   ....     0.843299027 Eh/bohr
Maximum allowed component of the step   ....  0.300
Current trust radius                    ....  0.300
Updating the Hessian (BFGS)             .... done
Forming the augmented Hessian           .... done
Diagonalizing the augmented Hessian     .... done
Last element of RFO vector              ....  0.870444609
Lowest eigenvalues of augmented Hessian:
 -0.248446395  0.024154375  0.033573250  0.041066361  0.049557793
Length of the computed step             ....  0.565534405
Warning: the length of the step is outside the trust region - taking restricted step instead
The input lambda is                     ....     0.023058
   iter:   5  x=    0.000452  g=  907.910985 f(x)=     9.506768
   iter:  10  x=   -0.424603  g=    1.303896 f(x)=     0.236662
   iter:  15  x=   -0.834404  g=    0.123020 f(x)=     0.000001
The output lambda is                    ....    -0.834404 (17 iterations)
The final length of the internal step   ....  0.300000000
Converting the step to Cartesian space:
 Initial RMS(Int)=    0.0288675135
Transforming coordinates:
 Iter   0:  RMS(Cart)=    0.0635546591 RMS(Int)=    0.0287974458
 Iter   5:  RMS(Cart)=    0.0000000396 RMS(Int)=    0.0000000227
done
Storing new coordinates                 .... done
The predicted energy change is          ....    -0.114197078
Previously predicted energy change      ....    -0.237242680
Actually observed energy change         ....    -0.225248476
Ratio of predicted to observed change   ....     0.949443315
New trust radius                        ....     0.450000000

                                .--------------------.
          ----------------------|Geometry convergence|-------------------------
          Item                value                   Tolerance       Converged
          ---------------------------------------------------------------------
          Energy change      -0.2252484765            0.0000010000      NO
          RMS gradient        0.0528249368            0.0000300000      NO
          MAX gradient        0.3208679301            0.0001000000      NO
          RMS step            0.0288675135            0.0006000000      NO
          MAX step            0.1327731692            0.0010000000      NO
          -------------------------------------------------------------------------
          ........................................................
          Max(Bonds)      0.0703      Max(Angles)    2.39
          Max(Dihed)        2.48      Max(Improp)    0.00
          ---------------------------------------------------------------------

The optimization has not yet converged - more geometry cycles are needed


    ---------------------------------------------------------------------------
                         Redundant Internal Coordinates
                            (Angstroem and degrees)

        Definition                    Value    dE/dq     Step     New-Value
    ----------------------------------------------------------------------------
     1. B(B   4,B   2)                1.8742 -0.042761  0.0154    1.8896   
     2. B(B   5,B   4)                1.2771 -0.320868  0.0574    1.3345   
     3. B(B   6,B   1)                1.6036  0.017567 -0.0142    1.5894   
     4. B(B   6,B   3)                1.7088  0.013838 -0.0084    1.7003   
     5. B(B   7,B   1)                1.8882  0.050926 -0.0282    1.8599   
     6. B(B   8,B   4)                1.5695 -0.013442  0.0038    1.5733   
     7. B(B   9,B   1)                1.9966  0.058071 -0.0339    1.9627   
     8. B(B   9,B   3)                1.4131 -0.154089  0.0474    1.4605   
     9. B(B  10,B   8)                1.7275 -0.004643 -0.0004    1.7271   
    10. B(B  10,B   6)                1.9804 -0.005563 -0.0042    1.9762   
    11. B(B  10,B   4)                1.4096 -0.124057  0.0465    1.4562   
    12. B(B  10,B   3)                1.6280  0.001322  0.0018    1.6298   
    13. B(B  10,B   2)                1.4788 -0.021424  0.0105    1.4893   
    14. B(B  11,B   3)                1.4560 -0.194611  0.0579    1.5138   
    15. B(B  11,B   0)                1.6042  0.025751 -0.0125    1.5917   
    16. B(B  11,B   9)                1.2883 -0.277163  0.0703    1.3585   
    17. A(B   6,B   1,B   9)           73.70 -0.038938    1.81     75.51   
    18. A(B   7,B   1,B   9)           82.11  0.028878   -2.34     79.77   
    19. A(B   6,B   1,B   7)           88.93  0.036505   -2.39     86.54   
    20. A(B   4,B   2,B  10)           47.95 -0.034014    1.39     49.34   
    21. A(B   9,B   3,B  10)          130.22 -0.004930   -0.23    129.99   
    22. A(B   6,B   3,B  11)          105.73 -0.006599    0.12    105.85   
    23. A(B   6,B   3,B   9)           88.15  0.014961   -0.44     87.70   
    24. A(B   6,B   3,B  10)           72.77 -0.005869   -0.00     72.77   
    25. A(B  10,B   3,B  11)           87.62  0.031712   -0.87     86.75   
    26. A(B   9,B   3,B  11)           53.34 -0.049425    1.07     54.41   
    27. A(B   5,B   4,B  10)          132.24 -0.011543    0.52    132.76   
    28. A(B   2,B   4,B  10)           51.17  0.010224   -0.29     50.88   
    29. A(B   8,B   4,B  10)           70.65  0.029703   -1.29     69.37   
    30. A(B   5,B   4,B   8)          156.85 -0.018892    0.81    157.66   
    31. A(B   2,B   4,B   8)           84.31  0.016115   -0.46     83.85   
    32. A(B   2,B   4,B   5)          107.23 -0.012532    0.39    107.62   
    33. A(B   3,B   6,B  10)           51.74  0.000121    0.24     51.97   
    34. A(B   1,B   6,B  10)          125.08 -0.000826   -0.49    124.59   
    35. A(B   1,B   6,B   3)          101.43 -0.004447   -0.24    101.20   
    36. A(B   4,B   8,B  10)           50.34 -0.041886    1.76     52.10   
    37. A(B   1,B   9,B   3)           96.05  0.031149   -1.23     94.82   
    38. A(B   3,B   9,B  11)           65.04  0.013587   -0.19     64.84   
    39. A(B   1,B   9,B  11)          106.49  0.018530   -0.71    105.78   
    40. A(B   6,B  10,B   8)          119.52  0.013896   -1.04    118.48   
    41. A(B   4,B  10,B   8)           59.00  0.012183   -0.47     58.53   
    42. A(B   3,B  10,B   8)          127.11 -0.006061    0.15    127.25   
    43. A(B   2,B  10,B   3)          112.08 -0.020526    1.04    113.12   
    44. A(B   2,B  10,B   8)           92.49  0.008013   -0.16     92.32   
    45. A(B   4,B  10,B   6)          108.37 -0.011019    0.38    108.75   
    46. A(B   3,B  10,B   6)           55.50  0.005748   -0.23     55.26   
    47. A(B   2,B  10,B   6)          147.20 -0.019297    1.08    148.28   
    48. A(B   3,B  10,B   4)          163.84 -0.005140    0.14    163.97   
    49. A(B   2,B  10,B   4)           80.87  0.023790   -1.10     79.77   
    50. A(B   3,B  11,B   9)           61.63  0.035839   -0.88     60.75   
    51. A(B   0,B  11,B   9)          122.38 -0.011658    0.57    122.95   
    52. A(B   0,B  11,B   3)          101.39 -0.029587    1.02    102.41   
    53. D(B   5,B   4,B   2,B  10)    130.83 -0.008128    0.46    131.29   
    54. D(B   8,B   4,B   2,B  10)    -69.68 -0.027277    1.34    -68.34   
    55. D(B   3,B   6,B   1,B   9)      5.44 -0.015252    0.56      5.99   
    56. D(B  10,B   6,B   3,B  11)    -82.39 -0.035174    0.99    -81.39   
    57. D(B   3,B   6,B   1,B   7)    -76.65 -0.033812    2.20    -74.46   
    58. D(B  10,B   6,B   1,B   9)     56.38 -0.018136    0.83     57.21   
    59. D(B  10,B   6,B   3,B   9)   -133.35  0.010282    0.05   -133.30   
    60. D(B   1,B   6,B   3,B   9)     -7.38  0.012838   -0.48     -7.86   
    61. D(B   1,B   6,B   3,B  10)    125.97  0.002557   -0.53    125.44   
    62. D(B   1,B   6,B   3,B  11)     43.58 -0.032617    0.46     44.04   
    63. D(B  10,B   6,B   1,B   7)    -25.71 -0.036697    2.48    -23.23   
    64. D(B  10,B   8,B   4,B   5)    172.36 -0.007990    0.58    172.95   
    65. D(B  10,B   8,B   4,B   2)     50.74  0.009664   -0.34     50.40   
    66. D(B   3,B   9,B   1,B   7)     84.72  0.046196   -2.47     82.25   
    67. D(B   3,B   9,B   1,B   6)     -6.48  0.010692   -0.42     -6.91   
    68. D(B   1,B   9,B   3,B  11)   -105.40 -0.006060    0.23   -105.16   
    69. D(B   1,B   9,B   3,B  10)    -59.61 -0.018819    0.74    -58.87   
    70. D(B  11,B   9,B   3,B   6)    111.24 -0.004623    0.18    111.42   
    71. D(B   1,B   9,B   3,B   6)      5.84 -0.010683    0.41      6.25   
    72. D(B  11,B   9,B   3,B  10)     45.79 -0.012759    0.51     46.30   
    73. D(B  11,B   9,B   1,B   7)     19.00  0.023720   -1.93     17.07   
    74. D(B  11,B   9,B   1,B   6)    -72.20 -0.011785    0.12    -72.08   
    75. D(B   4,B  10,B   3,B   9)     75.73  0.009518    0.04     75.77   
    76. D(B   4,B  10,B   3,B   6)      3.59 -0.009173    0.54      4.13   
    77. D(B   2,B  10,B   3,B  11)   -107.45 -0.029742    1.18   -106.27   
    78. D(B   2,B  10,B   3,B   9)   -142.58  0.005808    0.26   -142.32   
[...]
         :: add. restraining           0.000000000000 Eh    ::
         :: total charge               0.000000000013 e     ::
         :::::::::::::::::::::::::::::::::::::::::::::::::::::


Property printout bound to 'properties.out'

           -------------------------------------------------
          | TOTAL ENERGY              -14.248248800446 Eh   |
          | GRADIENT NORM               0.039385626963 Eh/α |
          | HOMO-LUMO GAP               0.790893448961 eV   |
           -------------------------------------------------

------------------------------------------------------------------------
 * finished run on 2026/04/17 at 12:14:06.250     
------------------------------------------------------------------------
 total:
 * wall-time:     0 d,  0 h,  0 min,  0.037 sec
 *  cpu-time:     0 d,  0 h,  0 min,  0.037 sec
 * ratio c/w:     0.999 speedup
 SCF:
 * wall-time:     0 d,  0 h,  0 min,  0.024 sec
 *  cpu-time:     0 d,  0 h,  0 min,  0.024 sec
 * ratio c/w:     0.999 speedup


-------------------------   --------------------
FINAL SINGLE POINT ENERGY       -14.248248800450
-------------------------   --------------------


-------------
DIPOLE MOMENT
-------------
                                X             Y             Z
Total Dipole Moment    :     -0.03500       0.49600      -0.22400
                        -----------------------------------------
Magnitude (a.u.)       :      0.54536
Magnitude (Debye)      :      1.38619


------------------
CARTESIAN GRADIENT
------------------

   1   B   :   -0.002547719    0.005335254    0.001602257
   2   B   :    0.002613935    0.008258724   -0.002208765
   3   B   :   -0.005232704   -0.011283073   -0.014725655
   4   B   :    0.004950833   -0.006911418    0.000035228
   5   B   :    0.004826766   -0.010849115   -0.000938497
   6   B   :    0.007565525    0.010690907    0.012980502
   7   B   :    0.001715645   -0.006153366   -0.000084161
   8   B   :   -0.003578091    0.000104373   -0.001597031
   9   B   :   -0.003708349    0.001021165   -0.000317403
  10   B   :    0.000941396   -0.004554712    0.002934953
  11   B   :   -0.007586383    0.017381076    0.005352194
  12   B   :    0.000039147   -0.003039815   -0.003033620

Difference to translation invariance:
           :    0.0000000000   -0.0000000000   -0.0000000000

Difference to rotation invariance:
           :    0.0000000303    0.0000000549   -0.0000000344

Norm of the Cartesian gradient     ...    0.0393856270
RMS gradient                       ...    0.0065642712
MAX gradient                       ...    0.0173810761
------------------------------------------------------------------------------
                         ORCA GEOMETRY RELAXATION STEP
------------------------------------------------------------------------------

Reading the OPT-File                    .... done
Getting information on internals        .... done
Copying old internal coords+grads       .... done
Making the new internal coordinates     .... (2022 redundants) done
Validating the new internal coordinates .... (2022 redundants) done
Calculating the B-matrix                .... done
Calculating the G,G- and P matrices     .... done
Transforming gradient to internals      .... done
Projecting the internal gradient        .... done
Number of atoms                         ....  12
Number of internal coordinates          .... 108
Current Energy                          ....   -14.248248800 Eh
Current gradient norm                   ....     0.039385627 Eh/bohr
Maximum allowed component of the step   ....  0.300
Current trust radius                    ....  0.700
Updating the Hessian (BFGS)             .... done
Forming the augmented Hessian           .... done
Diagonalizing the augmented Hessian     .... done
Last element of RFO vector              ....  0.963981078
Lowest eigenvalues of augmented Hessian:
 -0.001385162  0.000428738  0.005764469  0.013401511  0.014757811
Length of the computed step             ....  0.275908765
The final length of the internal step   ....  0.275908765
Converting the step to Cartesian space:
 Initial RMS(Int)=    0.0265493333
Transforming coordinates:
 Iter   0:  RMS(Cart)=    0.0156727489 RMS(Int)=    0.0112623817
done
Storing new coordinates                 .... done
The predicted energy change is          ....    -0.000745304
Previously predicted energy change      ....    -0.000726051
Actually observed energy change         ....     0.000183873
Ratio of predicted to observed change   ....     0.253250807
New trust radius                        ....     0.466666667

                                .--------------------.
          ----------------------|Geometry convergence|-------------------------
          Item                value                   Tolerance       Converged
          ---------------------------------------------------------------------
          Energy change       0.0001838730            0.0000010000      NO
          RMS gradient        0.0032440602            0.0000300000      NO
          MAX gradient        0.0171917929            0.0001000000      NO
          RMS step            0.0265493333            0.0006000000      NO
          MAX step            0.1612329057            0.0010000000      NO
          -------------------------------------------------------------------------
          ........................................................
          Max(Bonds)      0.0161      Max(Angles)    5.68
          Max(Dihed)        9.24      Max(Improp)    0.00
          ---------------------------------------------------------------------

The optimization has not yet converged - more geometry cycles are needed


    ---------------------------------------------------------------------------
                         Redundant Internal Coordinates
                            (Angstroem and degrees)

        Definition                    Value    dE/dq     Step     New-Value
    ----------------------------------------------------------------------------
     1. B(B   4,B   2)                2.0929  0.008494 -0.0129    2.0800   
     2. B(B   5,B   4)                1.4864 -0.006355  0.0029    1.4892   
     3. B(B   6,B   1)                1.5399  0.003342 -0.0007    1.5392   
     4. B(B   6,B   3)                1.6922 -0.001331  0.0079    1.7001   
     5. B(B   7,B   1)                1.8322 -0.003418  0.0028    1.8350   
     6. B(B   8,B   4)                1.5254  0.003672 -0.0085    1.5169   
     7. B(B   9,B   1)                1.5233 -0.004929  0.0061    1.5293   
     8. B(B   9,B   3)                2.9691  0.000874 -0.0150    2.9540   
     9. B(B  10,B   8)                2.3214 -0.002635  0.0134    2.3348   
    10. B(B  10,B   6)                1.5524 -0.001731  0.0012    1.5536   
    11. B(B  10,B   4)                2.6271  0.005648 -0.0161    2.6111   
    12. B(B  10,B   3)                1.6766 -0.001441  0.0010    1.6776   
    13. B(B  10,B   2)                1.5581 -0.000337  0.0036    1.5616   
    14. B(B  11,B   3)                2.7722  0.002311 -0.0018    2.7704   
    15. B(B  11,B   0)                1.5128 -0.006106  0.0051    1.5179   
    16. B(B  11,B   9)                1.5182 -0.000022  0.0021    1.5203   
    17. A(B   6,B   1,B   9)          147.77  0.000385   -0.44    147.33   
    18. A(B   7,B   1,B   9)           63.57 -0.002708   -0.15     63.42   
    19. A(B   6,B   1,B   7)           88.60  0.002788    0.16     88.76   
    20. A(B   4,B   2,B  10)           90.83 -0.000421   -0.51     90.32   
    21. A(B   9,B   3,B  10)          109.44 -0.000160    0.48    109.92   
    22. A(B   6,B   3,B  11)          102.94 -0.000643   -0.92    102.01   
    23. A(B   6,B   3,B   9)           72.52 -0.000514    0.44     72.95   
    24. A(B   6,B   3,B  10)           54.88 -0.000161   -0.14     54.74   
    25. A(B  10,B   3,B  11)          130.06  0.000154   -0.87    129.19   
    26. A(B   9,B   3,B  11)           30.42 -0.000131    0.02     30.44   
    27. A(B   5,B   4,B  10)           83.35  0.016211    2.99     86.34   
    28. A(B   2,B   4,B  10)           36.37 -0.000918    0.62     36.99   
    29. A(B   8,B   4,B  10)           61.37 -0.002679    0.89     62.27   
    30. A(B   5,B   4,B   8)          142.15  0.013474   -5.68    136.48   
    31. A(B   2,B   4,B   8)           96.22 -0.003427    0.30     96.52   
    32. A(B   2,B   4,B   5)           47.10  0.017192    2.80     49.90   
    33. A(B   3,B   6,B  10)           62.05  0.000041   -0.03     62.02   
    34. A(B   1,B   6,B  10)          128.66  0.000376   -0.22    128.43   
    35. A(B   1,B   6,B   3)           89.46  0.000178   -0.50     88.96   
    36. A(B   4,B   8,B  10)           83.40  0.002388   -1.24     82.16   
    37. A(B   1,B   9,B   3)           48.87 -0.000015    0.21     49.08   
    38. A(B   3,B   9,B  11)           67.60  0.000549    0.24     67.85   
    39. A(B   1,B   9,B  11)          116.20  0.000495   -1.31    114.88   
    40. A(B   6,B  10,B   8)           94.01 -0.001740    0.01     94.02   
    41. A(B   4,B  10,B   8)           35.22  0.000291    0.35     35.57   
    42. A(B   3,B  10,B   8)           86.59  0.000926   -0.48     86.11   
    43. A(B   2,B  10,B   3)          130.77 -0.000972    0.87    131.64   
    44. A(B   2,B  10,B   8)           86.69  0.001674   -1.89     84.80   
    45. A(B   4,B  10,B   6)          124.28 -0.001044   -0.38    123.90   
    46. A(B   3,B  10,B   6)           63.07  0.000120    0.18     63.25   
    47. A(B   2,B  10,B   6)          166.13  0.000890   -0.10    166.04   
    48. A(B   3,B  10,B   4)          115.29  0.000559    0.36    115.64   
    49. A(B   2,B  10,B   4)           52.80  0.001339   -0.12     52.69   
    50. A(B   3,B  11,B   9)           81.98 -0.000419   -0.26     81.71   
    51. A(B   0,B  11,B   9)          106.31 -0.000007   -0.11    106.20   
    52. A(B   0,B  11,B   3)           24.35  0.000401   -0.03     24.32   
    53. D(B   5,B   4,B   2,B  10)    174.45 -0.000861    4.77    179.22   
    54. D(B   8,B   4,B   2,B  10)    -16.11  0.000984   -0.61    -16.72   
    55. D(B   3,B   6,B   1,B   9)    -17.74  0.000013    0.15    -17.59   
    56. D(B  10,B   6,B   3,B  11)   -130.22 -0.000708    0.62   -129.59   
    57. D(B   3,B   6,B   1,B   7)    -46.85  0.001267   -0.11    -46.96   
    58. D(B  10,B   6,B   1,B   9)     34.83  0.000018    0.24     35.07   
    59. D(B  10,B   6,B   3,B   9)   -130.40 -0.000522   -0.12   -130.52   
    60. D(B   1,B   6,B   3,B   9)      5.01 -0.000207   -0.45      4.56   
    61. D(B   1,B   6,B   3,B  10)    135.41  0.000315   -0.33    135.08   
    62. D(B   1,B   6,B   3,B  11)      5.19 -0.000393    0.29      5.48   
    63. D(B  10,B   6,B   1,B   7)      5.72  0.001272   -0.02      5.70   
    64. D(B  10,B   8,B   4,B   5)     23.44  0.004641   -9.24     14.21   
    65. D(B  10,B   8,B   4,B   2)     10.81 -0.000609    0.91     11.72   
    66. D(B   3,B   9,B   1,B   7)     46.23 -0.000683   -0.13     46.10   
    67. D(B   3,B   9,B   1,B   6)     13.33 -0.000142   -0.35     12.98   
    68. D(B   1,B   9,B   3,B  11)    173.61 -0.000417    1.19    174.80   
    69. D(B   1,B   9,B   3,B  10)    -48.08  0.000479    0.04    -48.04   
    70. D(B  11,B   9,B   3,B   6)    179.66  0.000356   -0.69    178.97   
    71. D(B   1,B   9,B   3,B   6)     -6.74 -0.000061    0.50     -6.23   
    72. D(B  11,B   9,B   3,B  10)    138.31  0.000896   -1.15    137.16   
    73. D(B  11,B   9,B   1,B   7)     52.82 -0.000199   -0.28     52.53   
    74. D(B  11,B   9,B   1,B   6)     19.92  0.000343   -0.50     19.41   
    75. D(B   4,B  10,B   3,B   9)    -66.92  0.000555    2.72    -64.20   
    76. D(B   4,B  10,B   3,B   6)   -117.30  0.001355    2.72   -114.58   
    77. D(B   2,B  10,B   3,B  11)   -102.43 -0.002090   -0.61   -103.04   
    78. D(B   2,B  10,B   3,B   9)   -128.53 -0.001551    0.11   -128.42   
    79. D(B   2,B  10,B   3,B   6)   -178.91 -0.000751    0.11   -178.80   
    80. D(B   8,B  10,B   2,B   4)     10.46 -0.000232    1.70     12.16   
    81. D(B   6,B  10,B   2,B   4)    -82.87  0.000092   -0.69    -83.57   
    82. D(B   4,B  10,B   3,B  11)    -40.82  0.000016    2.00    -38.83   
    83. D(B   6,B  10,B   8,B   4)    151.60  0.001086   -0.24    151.36   
    84. D(B   3,B  10,B   2,B   4)     93.08  0.002634    1.39     94.47   
    85. D(B   8,B  10,B   6,B   1)     20.10  0.001995   -1.08     19.02   
    86. D(B   4,B  10,B   6,B   3)    103.51  0.001149    0.23    103.74   
    87. D(B   3,B  10,B   6,B   1)    -64.02  0.000034   -0.03    -64.05   
    88. D(B   2,B  10,B   6,B   3)    176.56  0.002111    1.49    178.06   
    89. D(B   2,B  10,B   6,B   1)    112.54  0.002145    1.46    114.00   
    90. D(B   6,B  10,B   4,B   5)    159.18 -0.000340   -0.60    158.58   
    91. D(B   6,B  10,B   4,B   2)    163.27  0.001301    0.42    163.69   
    92. D(B   3,B  10,B   4,B   8)     38.45  0.001986   -3.43     35.02   
    93. D(B   3,B  10,B   4,B   5)   -127.33 -0.000176   -2.69   -130.01   
    94. D(B   4,B  10,B   6,B   1)     39.49  0.001183    0.20     39.68   
    95. D(B   3,B  10,B   4,B   2)   -123.23  0.001466   -1.66   -124.90   
    96. D(B   2,B  10,B   4,B   8)    161.68  0.000520   -1.76    159.92   
    97. D(B   2,B  10,B   8,B   4)    -14.52  0.000169   -0.88    -15.41   
    98. D(B   3,B  10,B   8,B   4)   -145.72  0.001487   -0.31   -146.03   
    99. D(B   2,B  10,B   4,B   5)     -4.09 -0.001642   -1.02     -5.11   
   100. D(B   6,B  10,B   3,B   9)     50.38 -0.000800   -0.00     50.38   
   101. D(B   3,B  11,B   9,B   1)     -5.36 -0.000371   -0.20     -5.56   
   102. D(B   0,B  11,B   9,B   1)     -4.25 -0.000601   -0.10     -4.35   
   103. D(B   9,B  11,B   3,B  10)    -55.02  0.001173   -1.08    -56.10   
   104. D(B   9,B  11,B   3,B   6)     -0.34  0.000350   -1.35     -1.69   
   105. D(B   0,B  11,B   3,B  10)    127.57  0.000598   -0.06    127.50   
   106. D(B   0,B  11,B   9,B   3)      1.11 -0.000230    0.09      1.21   
   107. D(B   0,B  11,B   3,B   9)   -177.41 -0.000576    1.01   -176.40   
   108. D(B   0,B  11,B   3,B   6)   -177.75 -0.000225   -0.34   -178.09   
    ----------------------------------------------------------------------------

Geometry step timings:
Preparation and reading OPT file:      0.000 s ( 0.848 %)
Internal coordinates            :      0.000 s ( 1.178 %)
B/P matrices and projection     :      0.001 s (21.117 %)
Hessian update/contruction      :      0.001 s (18.878 %)
Making the step                 :      0.001 s (31.911 %)
Converting the step to Cartesian:      0.000 s ( 2.710 %)
Storing new data                :      0.000 s ( 1.108 %)
Checking convergence            :      0.000 s ( 1.438 %)
Final printing                  :      0.001 s (20.764 %)
Total time                      :      0.004 s

Time for energy+gradient        :      0.056 s
Time for complete geometry iter :      0.062 s




    ----------------------------------------------------------------------------
                                  WARNING !!!
       The optimization did not converge but reached the maximum number of
       optimization cycles.
       Please check your results very carefully.
    ----------------------------------------------------------------------------



--------------------------------
SUGGESTED CITATIONS FOR THIS RUN
--------------------------------

Below you find a list of papers that are relevant to this ORCA run
We neither can nor want to force you to cite these papers, but we appreciate if you do
You receive ORCA, which is the product of decades of hard work by many enthusiastic individuals, for free
The only thing we kindly ask in return is that you cite our papers,
We deeply appreciate it, if you show your appreciation for ORCA by not just citing the generic ORCA reference.

Please note that relegating all ORCA citations to the supporting information does *not* help us.
SI sections are not indexed - citations you put there will not count into any citation statistics
But we need these citations in order to attract the funding resources that allow us to do what we are doing

Therefore, if you are a happy ORCA user, please consider citing a few of the papers listed below in the main body of your paper

In addition to the list printed below, the program has created the file random_d1.50_006_m1.bibtex that contains the list in bibtex format
You can import this file easily into all common literature databanks and citation aid programs

It goes without saying that in many instances, there are alternative algorithms to achieve similar
results as the ones you have gotten from ORCA. It is, of course, also the case that in some instances
ORCA just re-implements algorithms worked out by others. We are fully aware of that and we are also
fully appreciative of our colleagues work. Hence this citation list should not be read as indicating
that the listed papers, which are focused on our own work, are the only ones worth citing. It simply
meant to make it easier for users to cite ORCA specific papers. It is not a substitute for doing your
own literature research and citing the relevant literature in a scientifically appropriate manner.

List of essential papers. We consider these as the minimum necessary citations

  1. Bannwarth, C.; Ehlert, S.; Grimme, S.
     GFN2-xTB—An Accurate and Broadly Parametrized Self-Consistent Tight-Binding Quantum Chemical Method with Multipole Electrostatics and Density-Dependent Dispersion Contributions
     J. Chem. Theory Comput. 2019 15(3), 1652-1671
     doi.org/10.1021/acs.jctc.8b01176
  2. Neese, F.
     Software update: the ORCA program system, version 6.0
     WIRES Comput. Molec. Sci. 2025 15(1), e70019
     doi.org/10.1002/wcms.70019

List of papers to cite with high priority. The work reported in these papers was absolutely
necessary for this run to complete.
Our perspective: the developers of density functionals and basis sets usually get cited in chemistry papers
Good! But without the algorithms to do something with them, the functionals or basis sets would not do anything.
Hence, in our opinion, the algorithm design and method developments papers are equally worthy of getting cited

  1. Bannwarth, C.; Caldeweyher, E.; Ehlert, S.; Hansen, A.; Pracht, P.; Seibert, J.; Spicher, S.; Grimme, S.
     Extended tight-binding quantum chemistry methods
     WIRES Comput. Molec. Sci. 2020 11(2), e1493
     doi.org/10.1002/wcms.1493

List of suggested additional citations. These are papers that are important in the 'surrounding' of 
of this run, or papers that preceded the highly important papers. If you like your results we are grateful for a citation.

  1. Neese, F.
     The ORCA program system
     WIRES Comput. Molec. Sci. 2012 2(1), 73-78
     doi.org/10.1002/wcms.81
  2. Neese, F.
     Software update: the ORCA program system, version 4.0
     WIRES Comput. Molec. Sci. 2018 8(1), 1-6
     doi.org/10.1002/wcms.1327
  3. Neese, F.; Wennmohs, F.; Becker, U.; Riplinger, C.
     The ORCA quantum chemistry program package
     J. Chem. Phys. 2020 152(22), 224108
     doi.org/10.1063/5.0004608
  4. Neese, F.
     Software update: The ORCA program system—Version 5.0
     WIRES Comput. Molec. Sci. 2022 12(1), e1606
     doi.org/10.1002/wcms.1606

List of optional additional citations

  1. Neese, F.
     Approximate second-order SCF convergence for spin unrestricted wavefunctions
     Chem. Phys. Lett. 2000 325(1-3), 93-98
     doi.org/10.1016/s0009-2614(00)00662-x

Timings for individual modules:

Sum of individual times          ...        3.267 sec (=   0.054 min)
Geometry relaxation              ...        0.292 sec (=   0.005 min)   8.9 %
XTB module                       ...        2.975 sec (=   0.050 min)  91.1 %
                             ****ORCA TERMINATED NORMALLY****
TOTAL RUN TIME: 0 days 0 hours 0 minutes 3 seconds 881 msec
