
                                 *****************
                                 * O   R   C   A *
                                 *****************

                                            #,                                       
                                            ###                                      
                                            ####                                     
                                            #####                                    
                                            ######                                   
                                           ########,                                 
                                     ,,################,,,,,                         
                               ,,#################################,,                 
                          ,,##########################################,,             
                       ,#########################################, ''#####,          
                    ,#############################################,,   '####,        
                  ,##################################################,,,,####,       
                ,###########''''           ''''###############################       
              ,#####''   ,,,,##########,,,,          '''####'''          '####       
            ,##' ,,,,###########################,,,                        '##       
           ' ,,###''''                  '''############,,,                           
         ,,##''                                '''############,,,,        ,,,,,,###''
      ,#''                                            '''#######################'''  
     '                                                          ''''####''''         
             ,#######,   #######,   ,#######,      ##                                
            ,#'     '#,  ##    ##  ,#'     '#,    #''#        ,####,    ,#,          
            ##       ##  ##   ,#'  ##            #'  '#       #'       ,# #          
            ##       ##  #######   ##           ,######,      #####,      #          
            '#,     ,#'  ##    ##  '#,     ,#' ,#      #,     #,   #      #          
             '#######'   ##     ##  '#######'  #'      '#     '####' #    #          



                #########################################################
                #                        -***-                          #
                #          Department of theory and spectroscopy        #
                #                                                       #
                #                      Frank Neese                      #
                #                                                       #
                #     Directorship, Architecture, Infrastructure        #
                #                    SHARK, DRIVERS                     #
                #        Core code/Algorithms in most modules           #
                #                                                       #
                #        Max Planck Institute fuer Kohlenforschung      #
                #                Kaiser Wilhelm Platz 1                 #
                #                 D-45470 Muelheim/Ruhr                 #
                #                      Germany                          #
                #                                                       #
                #                  All rights reserved                  #
                #                        -***-                          #
                #########################################################


                         Program Version 6.1.1  -  RELEASE   -
                                (GIT: $487d211c$)
                          ($2025-11-21 10:33:24 +0100$)
                                                                         
                                  - NO-DMRG VERSION -                    
                                                                         


 With contributions from (in alphabetic order):
[Max-Planck-Institut fuer Kohlenforschung]                               
  Daniel Aravena         : Magnetic Suceptibility                        
  Michael Atanasov       : Ab Initio Ligand Field Theory (pilot matlab implementation)
  Alexander A. Auer      : GIAO ZORA, VPT2 properties, NMR spectrum      
  Ute Becker             : All parallelization in ORCA, NUMFREQ, NUMCALC 
  Giovanni Bistoni       : ED, misc. LED, open-shell LED, HFLD           
  Dmytro Bykov           : pre 5.0 version of the SCF Hessian            
  Marcos Casanova-Páez   : Triplet and SCS-CIS(D). UHF-(DLPNO)-IP/EA/STEOM-CCSD. UHF-CVS-IP/STEOM-CCSD   
  Vijay G. Chilkuri      : MRCI spin determinant printing, contributions to CSF-ICE 
  Pauline Colinet        : FMM embedding                                 
  Dipayan Datta          : RHF DLPNO-CCSD density                        
  Achintya Kumar Dutta   : EOM-CC, STEOM-CC                              
  Nicolas Foglia         : Exact transition moments, OPA infrastructure, MCD improvements    
  Dmitry Ganyushin       : Spin-Orbit,Spin-Spin,Magnetic field MRCI      
  Miquel Garcia-Rates    : C-PCM and meta-GGA Hessian, CCSD/C-PCM, Gaussian charge scheme 
  Tiago L. C. Gouveia    : GS-ROHF, GS-ROCIS                             
  Yang Guo               : DLPNO-NEVPT2, F12-NEVPT2, CIM, IAO-localization        
  Andreas Hansen         : Spin unrestricted coupled pair/coupled cluster methods 
  Ingolf Harden          : AUTO-CI MPn and infrastructure                
  Benjamin Helmich-Paris : MC-RPA, TRAH-(SCF,CASSCF), AVAS, COSX integrals, SCF dyn. polar., MC-PDFT, srDFT 
  Lee Huntington         : MR-EOM, pCC                                   
  Robert Izsak           : Overlap fitted RIJCOSX, COSX-SCS-MP3, EOM     
  Riya Kayal             : Wick's Theorem for AUTO-CI, AUTO-CI UHF-CCSDT 
  Emily Kempfer          : AUTO-CI RHF CISDT and CCSDT, approximate NEVPT4
  Christian Kollmar      : KDIIS, OOCD, Brueckner-CCSD(T), CCSD density, CASPT2, CASPT2-K, improved NEVPT2 
  Axel Koslowski         : Symmetry handling                             
  Simone Kossmann        : meta-GGA functionals, TD-DFT gradient, OOMP2, (MP2 Hessian; deprecated post 5.0) 
  Lucas Lang             : DCDCAS, Hyperfine gauge corrections, ICE-SOC+SSC
  Marvin Lechner         : AUTO-CI (C++ implementation), FIC-MRCC        
  Spencer Leger          : CASSCF response                               
  Dagmar Lenk            : GEPOL surface, SMD, ORCA-2-JSON               
  Dimitrios Liakos       : Extrapolation schemes; Compound Job, Property file
  Dimitrios Manganas     : Further ROCIS development; embedding schemes. LFT, Crystal Embedding 
  Dimitrios Pantazis     : SARC Basis sets                               
  Anastasios Papadopoulos: AUTO-CI, single reference methods and gradients 
  Taras Petrenko         : pre 6.0 DFT Hessian and TD-DFT gradient,  ECA, NRVS 
  Petra Pikulova         : Analytic Raman intensities                    
  Peter Pinski           : DLPNO-MP2, DLPNO-MP2 Gradient                 
  Shashank Vittal Rao    : ES-AILFT, MagRelax                            
  Christoph Reimann      : Effective Core Potentials                     
  Marius Retegan         : Local ZFS, SOC                                
  Christoph Riplinger    : Optimizer, TS searches, QM/MM, DLPNO-CCSD(T), (RO)-DLPNO pert. Triples 
  Michael Roemelt        : Original ROCIS implementation, recursive CI coupling coefficients
  Masaaki Saitow         : Open-shell DLPNO-CCSD energy and density      
  Barbara Sandhoefer     : DKH picture change effects                    
  Yorick L. A. Schmerwitz: GMF and freeze-and-release deltaSCF, NEB S-IDPP initial path                    
  Kantharuban Sivalingam : CASSCF convergence/infrastructure, NEVPT2, NEVPT3, NEVPT4(SD), FIC-MRCI and CEPA variants
  Bernardo de Souza      : ESD, SOC TD-DFT                               
  Georgi L. Stoychev     : AutoAux, RI-MP2 NMR, DLPNO-MP2 response, X2C  
  Van Anh Tran           : RI-MP2 g-tensors                              
  Willem Van den Heuvel  : Paramagnetic NMR                              
  Zikuan Wang            : NOTCH, Electric field optimization            
  Frank Wennmohs         : Technical directorship and infrastructure     
  Hang Xu                : AUTO-CI-Response properties                   
                                                                         
[FACCTs GmbH]                                                            
  Markus Bursch, Nicolas Foglia, Miquel Garcia-Rates, Ingolf Harden, Hagen Neugebauer, Anastasios Papadopoulos, 
  Christoph Riplinger, Bernardo de Souza, Georgi L. Stoychev                                                    
                                                                 
  APM, various basis sets, CI-OPT, improved COSX, DLPNO-Multilevel,           
  DOCKER, DRACO, updates on ESD, Fragmentator, GOAT, IRC, LR-CPCM, L-BFGS, MBIS, meta-GGA TD-DFT gradient, ML-optimized integration grids, 
  MM, NACMEs, nearIR, NEB, NEB-TS, NL-DFT gradient (VV10), 2- and 3-layer-ONIOM, interface openCOSMO-RS, QMMM,   
  Crystal-QMMM, RESP, rigid body optimization, SF, symmetry and pop. for TD-DFT, various functionals, SOLVATOR                                   
                                                                         
[Other institutions]                                                     
  V. Asgeirsson          : NEB                                           
  Christoph Bannwarth    : sTDA-DFT, sTD-DFT, PBEh-3c, B97-3c, D3        
  Giovanni Bistoni       : ETS/NOCV, ADLD/ADEX, COVALED                  
  Martin Brehm           : Molecular dynamics                            
  Ronald Cardenas        : ETS/NOCV                                      
  Martina Colucci        : COVALED                                       
  Sebastian Ehlert       : rSCAN, r2SCAN, r2SCAN-3c, D4, dhf basis sets  
  Marvin Friede          : D4 for Fr, Ra, Ac-Lr                          
  Lars Goerigk           : TD-DFT with DH, B97 family of functionals     
  Stefan Grimme          : VdW corrections, initial TS optimization, DFT functionals, gCP, sTDA/sTD-DF 
  Waldemar Hujo          : DFT-NL                                        
  H. Jonsson             : NEB                                           
  Holger Kruse           : gCP                                           
  Marcel Mueller         : wB97X-3c, vDZP basis set                      
  Hagen Neugebauer       : wr2SCAN, Native XTB                           
  Gianluca Regni         : ADLD/ADEX                                     
  Tobias Risthaus        : pre 6.0 range-separated hybrid DFT and stability analysis
  Lukas Wittmann         : regularized MP2, r2SCAN double-hybrids, wr2SCAN        
                                                                         
We gratefully acknowledge several colleagues who have allowed us to      
interface, adapt or use parts of their codes:                            
  Ed Valeev, F. Pavosevic, A. Kumar             : LibInt (2-el integral package), F12 methods 
  Garnet Chan, S. Sharma, J. Yang, R. Olivares  : DMRG                   
  Ulf Ekstrom                                   : XCFun DFT Library      
  Mihaly Kallay                                 : mrcc  (arbitrary order and MRCC methods)
  Frank Weinhold                                : gennbo (NPA and NBO analysis)           
  Simon Mueller                                 : openCOSMO-RS                            
  Christopher J. Cramer and Donald G. Truhlar   : smd solvation model                     
  S Lehtola, MJT Oliveira, MAL Marques          : LibXC Library                           
  Liviu Ungur et al                             : ANISO software                          


 Your calculation uses the libint2 library for the computation of 2-el integrals
 For citations please refer to: http://libint.valeyev.net

 Your ORCA version has been built with support for libXC version: 7.0.0
 For citations please refer to: https://libxc.gitlab.io

 This ORCA versions uses:
   CBLAS   interface :  Fast vector & matrix operations
   LAPACKE interface :  Fast linear algebra routines
   SCALAPACK package :  Parallel linear algebra routines
   Shared memory     :  Shared parallel matrices
   BLAS/LAPACK       :  OpenBLAS 0.3.29  USE64BITINT DYNAMIC_ARCH NO_AFFINITY Zen SINGLE_THREADED
        Core in use  :  Zen
   Copyright (c) 2011-2014, The OpenBLAS Project


  ***********************************
  * Starting time: Fri Apr 17 12:14:24 2026
  * Host name:     vmi3233575
  * Process ID:    335030
  * Working dir.:  /root/orca_b12_vps_pack/jobs/01_xtb/mult_1
  ***********************************

NOTE: MaxCore=500 MB was set to SCF,MP2,MDCI,CIPSI,MRCI,RASCI and CIS
      => If you want to overwrite this, your respective input block should be placed after the MaxCore statement


***************************************
The coordinates will be read from file: ../../../starts/ring12_d1.50.xyz
***************************************


Your calculation utilizes the semiempirical GFN2-xTB method
Please cite in your paper:
Bannwarth, C.; Ehlert S.; Grimme, S. J. Chem. Theory Comput. 2019, 15, 1652.
   

================================================================================

================================================================================
                                        WARNINGS
                       Please study these warnings very carefully!
================================================================================


WARNING: Geometry Optimization
  ===> : Switching off AutoStart
         For restart on a previous wavefunction, please use MOREAD

WARNING: Found dipole moment calculation with XTB calculation
  ===> : Switching off dipole moment calculation

Environment variable XTBEXE for xtb has been set!

================================================================================
                                       INPUT FILE
================================================================================
NAME = ring12_d1.50_m1.inp
|  1> ! GFN2-xTB TightSCF TightOpt
|  2> 
|  3> %pal
|  4>   nprocs 1
|  5> end
|  6> 
|  7> %maxcore 500
|  8> 
|  9> * xyzfile 0 1 ../../../starts/ring12_d1.50.xyz
| 10> 
| 11>                          ****END OF INPUT****
================================================================================

                       *****************************
                       * Geometry Optimization Run *
                       *****************************

Geometry optimization settings:
Update method            Update   .... BFGS
Choice of coordinates    CoordSys .... (2022) Redundant Internals
Initial Hessian          InHess   .... Almloef's Model
Max. no of cycles        MaxIter  .... 50

Convergence Tolerances:
Energy Change            TolE     ....  1.0000e-06 Eh
Max. Gradient            TolMAXG  ....  1.0000e-04 Eh/bohr
RMS Gradient             TolRMSG  ....  3.0000e-05 Eh/bohr
Max. Displacement        TolMAXD  ....  1.0000e-03 bohr
RMS Displacement         TolRMSD  ....  6.0000e-04 bohr
Strict Convergence                .... False

------------------------------------------------------------------------------
                        ORCA OPTIMIZATION COORDINATE SETUP
------------------------------------------------------------------------------

The optimization will be done in redundant internal coordinates (2022)
Making redundant internal coordinates   ...  (2022 redundants) done
Evaluating the initial hessian          ...  (Almloef) done
Evaluating the coordinates              ...  done
Calculating the B-matrix                .... done
Calculating the G-matrix                .... done
The number of degrees of freedom        ....   36

    -----------------------------------------------------------------
                    Redundant Internal Coordinates


    -----------------------------------------------------------------
         Definition                    Initial Value    Approx d2E/dq
    -----------------------------------------------------------------
      1. B(B   1,B   0)                  1.5000         0.559597   
      2. B(B   2,B   1)                  1.5000         0.559597   
      3. B(B   3,B   2)                  1.5000         0.559597   
      4. B(B   4,B   3)                  1.5000         0.559597   
      5. B(B   5,B   4)                  1.5000         0.559597   
      6. B(B   6,B   5)                  1.5000         0.559597   
      7. B(B   7,B   6)                  1.5000         0.559597   
      8. B(B   8,B   7)                  1.5000         0.559597   
      9. B(B   9,B   8)                  1.5000         0.559597   
     10. B(B  10,B   9)                  1.5000         0.559597   
     11. B(B  11,B  10)                  1.5000         0.559597   
     12. B(B  11,B   0)                  1.5000         0.559597   
     13. A(B   1,B   0,B  11)          150.0000         0.432737   
     14. A(B   0,B   1,B   2)          150.0000         0.432737   
     15. A(B   1,B   2,B   3)          150.0000         0.432737   
     16. A(B   2,B   3,B   4)          150.0000         0.432737   
     17. A(B   3,B   4,B   5)          150.0000         0.432737   
     18. A(B   4,B   5,B   6)          150.0000         0.432737   
     19. A(B   5,B   6,B   7)          150.0000         0.432737   
     20. A(B   6,B   7,B   8)          150.0000         0.432737   
     21. A(B   7,B   8,B   9)          150.0000         0.432737   
     22. A(B   8,B   9,B  10)          150.0000         0.432737   
     23. A(B   9,B  10,B  11)          150.0000         0.432737   
     24. A(B   0,B  11,B  10)          150.0000         0.432737   
     25. D(B   2,B   1,B   0,B  11)      0.0000         0.011884   
     26. D(B   3,B   2,B   1,B   0)      0.0000         0.011884   
     27. D(B   4,B   3,B   2,B   1)      0.0000         0.011884   
     28. D(B   5,B   4,B   3,B   2)      0.0000         0.011884   
     29. D(B   6,B   5,B   4,B   3)      0.0000         0.011884   
     30. D(B   7,B   6,B   5,B   4)      0.0000         0.011884   
     31. D(B   8,B   7,B   6,B   5)      0.0000         0.011884   
     32. D(B   9,B   8,B   7,B   6)      0.0000         0.011884   
     33. D(B  10,B   9,B   8,B   7)      0.0000         0.011884   
     34. D(B  11,B  10,B   9,B   8)      0.0000         0.011884   
     35. D(B   0,B  11,B  10,B   9)      0.0000         0.011884   
     36. D(B  10,B  11,B   0,B   1)      0.0000         0.011884   
    -----------------------------------------------------------------

Number of atoms                         .... 12
Number of degrees of freedom            .... 36


         *************************************************************
         *                GEOMETRY OPTIMIZATION CYCLE   1            *
         *************************************************************
---------------------------------
CARTESIAN COORDINATES (ANGSTROEM)
---------------------------------
  B     2.897777   -0.000000    0.000000
  B     2.509549    1.448889    0.000000
  B     1.448889    2.509549    0.000000
  B     0.000000    2.897777    0.000000
  B    -1.448889    2.509549    0.000000
  B    -2.509549    1.448889    0.000000
  B    -2.897777    0.000000    0.000000
  B    -2.509549   -1.448889    0.000000
  B    -1.448889   -2.509549    0.000000
  B    -0.000000   -2.897777    0.000000
  B     1.448889   -2.509549    0.000000
  B     2.509549   -1.448889    0.000000

----------------------------
CARTESIAN COORDINATES (A.U.)
----------------------------
  NO LB    ZA    FRAG    MASS        X           Y           Z
   0 B   5.0000    0    10.810    5.476006   -0.000000    0.000000
   1 B   5.0000    0    10.810    4.742360    2.738003    0.000000
   2 B   5.0000    0    10.810    2.738003    4.742360    0.000000
   3 B   5.0000    0    10.810    0.000000    5.476006    0.000000
   4 B   5.0000    0    10.810   -2.738003    4.742360    0.000000
   5 B   5.0000    0    10.810   -4.742360    2.738003    0.000000
   6 B   5.0000    0    10.810   -5.476006    0.000000    0.000000
   7 B   5.0000    0    10.810   -4.742360   -2.738003    0.000000
   8 B   5.0000    0    10.810   -2.738003   -4.742360    0.000000
   9 B   5.0000    0    10.810   -0.000000   -5.476006    0.000000
  10 B   5.0000    0    10.810    2.738003   -4.742360    0.000000
  11 B   5.0000    0    10.810    4.742360   -2.738003    0.000000

      -----------------------------------------------------------      
     |                   =====================                   |     
     |                           x T B                           |     
     |                   =====================                   |     
     |                         S. Grimme                         |     
     |          Mulliken Center for Theoretical Chemistry        |     
     |                    University of Bonn                     |     
      -----------------------------------------------------------      

   * xtb version 6.6.1 (unknown) compiled by 'builduser@buildhost' on 2023-08-07

   xtb is free software: you can redistribute it and/or modify it under
   the terms of the GNU Lesser General Public License as published by
   the Free Software Foundation, either version 3 of the License, or
   (at your option) any later version.
   
   xtb is distributed in the hope that it will be useful,
   but WITHOUT ANY WARRANTY; without even the implied warranty of
   MERCHANTABILITY or FITNESS FOR A PARTICULAR PURPOSE.  See the
   GNU Lesser General Public License for more details.
   
   Cite this work as:
   * C. Bannwarth, E. Caldeweyher, S. Ehlert, A. Hansen, P. Pracht,
     J. Seibert, S. Spicher, S. Grimme, WIREs Comput. Mol. Sci., 2020, 11,
     e01493. DOI: 10.1002/wcms.1493
   
   for GFN2-xTB:
   * C. Bannwarth, S. Ehlert and S. Grimme., J. Chem. Theory Comput., 2019,
     15, 1652-1671. DOI: 10.1021/acs.jctc.8b01176
   for GFN1-xTB:
   * S. Grimme, C. Bannwarth, P. Shushkov, J. Chem. Theory Comput., 2017,
     13, 1989-2009. DOI: 10.1021/acs.jctc.7b00118
   for GFN0-xTB:
   * P. Pracht, E. Caldeweyher, S. Ehlert, S. Grimme, ChemRxiv, 2019, preprint.
     DOI: 10.26434/chemrxiv.8326202.v1
   for GFN-FF:
   * S. Spicher and S. Grimme, Angew. Chem. Int. Ed., 2020, 59, 15665-15673.
     DOI: 10.1002/anie.202004239
   
   for ALPB and GBSA implicit solvation:
   * S. Ehlert, M. Stahn, S. Spicher, S. Grimme, J. Chem. Theory Comput.,
     2021, 17, 4250-4261. DOI: 10.1021/acs.jctc.1c00471
   
   for DFT-D4:
   * E. Caldeweyher, C. Bannwarth and S. Grimme, J. Chem. Phys., 2017,
     147, 034112. DOI: 10.1063/1.4993215
   * E. Caldeweyher, S. Ehlert, A. Hansen, H. Neugebauer, S. Spicher,
     C. Bannwarth and S. Grimme, J. Chem. Phys., 2019, 150, 154122.
     DOI: 10.1063/1.5090222
   * E. Caldeweyher, J.-M. Mewes, S. Ehlert and S. Grimme, Phys. Chem. Chem. Phys.
     2020, 22, 8499-8512. DOI: 10.1039/D0CP00502A
   
   for sTDA-xTB:
   * S. Grimme and C. Bannwarth, J. Chem. Phys., 2016, 145, 054103.
     DOI: 10.1063/1.4959605
   
   in the mass-spec context:
   * V. Asgeirsson, C. Bauer and S. Grimme, Chem. Sci., 2017, 8, 4879.
     DOI: 10.1039/c7sc00601b
   * J. Koopman and S. Grimme, ACS Omega 2019, 4, 12, 15120-15133.
     DOI: 10.1021/acsomega.9b02011
   
   for metadynamics refer to:
   * S. Grimme, J. Chem. Theory Comput., 2019, 155, 2847-2862
     DOI: 10.1021/acs.jctc.9b00143
   
   for SPH calculations refer to:
   * S. Spicher and S. Grimme, J. Chem. Theory Comput., 2021, 17, 1701-1714
     DOI: 10.1021/acs.jctc.0c01306
   
   with help from (in alphabetical order)
   P. Atkinson, C. Bannwarth, F. Bohle, G. Brandenburg, E. Caldeweyher
   M. Checinski, S. Dohm, S. Ehlert, S. Ehrlich, I. Gerasimov, C. Hölzer
   A. Katbashev, J. Koopman, C. Lavigne, S. Lehtola, F. März, M. Müller,
   F. Musil, H. Neugebauer, J. Pisarek, C. Plett, P. Pracht, F. Pultar,
   J. Seibert, P. Shushkov, S. Spicher, M. Stahn, M. Steiner, T. Strunk,
   J. Stückrath, T. Rose, and J. Unsleber
   
 * started run on 2026/04/17 at 12:14:25.093     

           -------------------------------------------------
          |                Calculation Setup                |
           -------------------------------------------------

          program call               : /usr/bin/xtb ring12_d1.50_m1_XTB.xyz --grad -c 0 -u 0 -P 1 --namespace ring12_d1.50_m1 --input ring12_d1.50_m1_XTB.input.tmp --acc 0.200000
          calculation namespace      : ring12_d1.50_m1
          coordinate file            : ring12_d1.50_m1_XTB.xyz
          omp threads                :                     1

   ID    Z sym.   atoms
    1    5 B      1-12

           -------------------------------------------------
          |                 G F N 2 - x T B                 |
           -------------------------------------------------

        Reference                      10.1021/acs.jctc.8b01176
      * Hamiltonian:
        H0-scaling (s, p, d)           1.850000    2.230000    2.230000
        zeta-weighting                 0.500000
      * Dispersion:
        s8                             2.700000
        a1                             0.520000
        a2                             5.000000
        s9                             5.000000
      * Repulsion:
        kExp                           1.500000    1.000000
        rExp                           1.000000
      * Coulomb:
        alpha                          2.000000
        third order                    shell-resolved
        anisotropic                    true
        a3                             3.000000
        a5                             4.000000
        cn-shift                       1.200000
        cn-exp                         4.000000
        max-rad                        5.000000


          ...................................................
          :                      SETUP                      :
          :.................................................:
          :  # basis functions                  48          :
          :  # atomic orbitals                  48          :
          :  # shells                           24          :
          :  # electrons                        36          :
          :  max. iterations                   250          :
          :  Hamiltonian                  GFN2-xTB          :
          :  restarted?                      false          :
          :  GBSA solvation                  false          :
          :  PC potential                    false          :
          :  electronic temp.          300.0000000     K    :
          :  accuracy                    0.2000000          :
          :  -> integral cutoff          0.3198970E+02      :
          :  -> integral neglect         0.2000000E-08      :
          :  -> SCF convergence          0.2000000E-06 Eh   :
          :  -> wf. convergence          0.2000000E-04 e    :
          :  Broyden damping             0.4000000          :
          ...................................................

 iter      E             dE          RMSdq      gap      omega  full diag
   1    -14.5563764 -0.145564E+02  0.258E+01    0.88       0.0  T
   2    -14.5562424  0.134054E-03  0.156E+01    0.90       1.0  T
   3    -14.5611841 -0.494177E-02  0.124E+00    0.96       1.0  T
   4    -14.5612421 -0.579537E-04  0.249E-01    0.96       1.0  T
   5    -14.5612426 -0.507451E-06  0.827E-02    0.96       1.0  T
   6    -14.5612428 -0.233206E-06  0.149E-02    0.96       1.9  T
   7    -14.5612428 -0.398145E-08  0.435E-03    0.96       6.6  T
   8    -14.5612428 -0.461556E-09  0.908E-06    0.96    3179.8  T
   9    -14.5612428  0.634159E-12  0.224E-05    0.96    1290.1  T

   *** convergence criteria satisfied after 9 iterations ***

         #    Occupation            Energy/Eh            Energy/eV
      -------------------------------------------------------------
         1        2.0000           -0.3958067             -10.7704
       ...           ...                  ...                  ...
        12        2.0000           -0.2889316              -7.8622
        13        2.0000           -0.2836263              -7.7179
        14        2.0000           -0.2833937              -7.7115
        15        2.0000           -0.2762302              -7.5166
        16        2.0000           -0.2762302              -7.5166
        17        2.0000           -0.2711921              -7.3795
        18        2.0000           -0.2711921              -7.3795 (HOMO)
        19                         -0.2359541              -6.4206 (LUMO)
        20                         -0.2359540              -6.4206
        21                         -0.2292603              -6.2385
        22                         -0.2292603              -6.2385
        23                         -0.1629766              -4.4348
       ...                                ...                  ...
        48                          1.2930350              35.1853
      -------------------------------------------------------------
                  HL-Gap            0.0352380 Eh            0.9589 eV
             Fermi-level           -0.2535711 Eh           -6.9000 eV

 SCC (total)                   0 d,  0 h,  0 min,  0.019 sec
 SCC setup                      ...        0 min,  0.000 sec (  0.824%)
 Dispersion                     ...        0 min,  0.000 sec (  0.503%)
 classical contributions        ...        0 min,  0.000 sec (  0.198%)
 integral evaluation            ...        0 min,  0.003 sec ( 14.604%)
 iterations                     ...        0 min,  0.009 sec ( 48.609%)
 molecular gradient             ...        0 min,  0.006 sec ( 33.287%)
 printout                       ...        0 min,  0.000 sec (  1.848%)

         :::::::::::::::::::::::::::::::::::::::::::::::::::::
         ::                     SUMMARY                     ::
         :::::::::::::::::::::::::::::::::::::::::::::::::::::
         :: total energy             -14.249960472358 Eh    ::
         :: gradient norm              0.017818291617 Eh/a0 ::
         :: HOMO-LUMO gap              0.958874869828 eV    ::
         ::.................................................::
         :: SCC energy               -14.561242839341 Eh    ::
         :: -> isotropic ES            0.093259098838 Eh    ::
         :: -> anisotropic ES          0.002219799794 Eh    ::
         :: -> anisotropic XC         -0.038654082519 Eh    ::
         :: -> dispersion             -0.012708306652 Eh    ::
         :: repulsion energy           0.311147195042 Eh    ::
         :: add. restraining           0.000000000000 Eh    ::
         :: total charge               0.000000000146 e     ::
         :::::::::::::::::::::::::::::::::::::::::::::::::::::


Property printout bound to 'properties.out'

           -------------------------------------------------
          | TOTAL ENERGY              -14.249960472358 Eh   |
          | GRADIENT NORM               0.017818291617 Eh/α |
          | HOMO-LUMO GAP               0.958874869828 eV   |
           -------------------------------------------------

------------------------------------------------------------------------
 * finished run on 2026/04/17 at 12:14:25.125     
------------------------------------------------------------------------
 total:
 * wall-time:     0 d,  0 h,  0 min,  0.032 sec
 *  cpu-time:     0 d,  0 h,  0 min,  0.032 sec
 * ratio c/w:     0.994 speedup
 SCF:
 * wall-time:     0 d,  0 h,  0 min,  0.019 sec
 *  cpu-time:     0 d,  0 h,  0 min,  0.019 sec
 * ratio c/w:     1.000 speedup


-------------------------   --------------------
FINAL SINGLE POINT ENERGY       -14.249960472360
-------------------------   --------------------


-------------
DIPOLE MOMENT
-------------
                                X             Y             Z
Total Dipole Moment    :     -0.00000       0.00000       0.00000
                        -----------------------------------------
Magnitude (a.u.)       :      0.00000
Magnitude (Debye)      :      0.00000


------------------
CARTESIAN GRADIENT
------------------

   1   B   :   -0.005143687    0.000000002   -0.000000000
   2   B   :   -0.004454594   -0.002571822    0.000000000
   3   B   :   -0.002571826   -0.004454592    0.000000000
   4   B   :   -0.000000001   -0.005143690   -0.000000000
   5   B   :    0.002571825   -0.004454595    0.000000000
   6   B   :    0.004454595   -0.002571824   -0.000000000
   7   B   :    0.005143690    0.000000002    0.000000000
   8   B   :    0.004454592    0.002571826    0.000000000
   9   B   :    0.002571821    0.004454593   -0.000000000
  10   B   :   -0.000000001    0.005143686    0.000000000
  11   B   :   -0.002571823    0.004454591   -0.000000000
  12   B   :   -0.004454591    0.002571823   -0.000000000

Difference to translation invariance:
           :   -0.0000000000   -0.0000000000   -0.0000000000

Difference to rotation invariance:
           :    0.0000000000    0.0000000000    0.0000000000

Norm of the Cartesian gradient     ...    0.0178182916
RMS gradient                       ...    0.0029697153
MAX gradient                       ...    0.0051436901
------------------------------------------------------------------------------
                         ORCA GEOMETRY RELAXATION STEP
------------------------------------------------------------------------------

Reading the OPT-File                    .... done
Getting information on internals        .... done
Copying old internal coords+grads       .... done
Making the new internal coordinates     .... (2022 redundants) done
Validating the new internal coordinates .... (2022 redundants) done
Calculating the B-matrix                .... done
Calculating the G,G- and P matrices     .... done
Transforming gradient to internals      .... done
Projecting the internal gradient        .... done
Number of atoms                         ....  12
Number of internal coordinates          ....  36
Current Energy                          ....   -14.249960472 Eh
Current gradient norm                   ....     0.017818292 Eh/bohr
Maximum allowed component of the step   ....  0.300
Current trust radius                    ....  0.300
Evaluating the initial hessian          ....  (Almloef) done
Projecting the Hessian                  .... done
Forming the augmented Hessian           .... done
Diagonalizing the augmented Hessian     .... done
Last element of RFO vector              ....  0.998127553
Lowest eigenvalues of augmented Hessian:
 -0.002109455  0.011884002  0.011884002  0.011884002  0.011884002
Length of the computed step             ....  0.061281634
The final length of the internal step   ....  0.061281634
Converting the step to Cartesian space:
 Initial RMS(Int)=    0.0102136056
Transforming coordinates:
 Iter   0:  RMS(Cart)=    0.0197311709 RMS(Int)=    0.0102136056
done
Storing new coordinates                 .... done

                                .--------------------.
          ----------------------|Geometry convergence|-------------------------
          Item                value                   Tolerance       Converged
          ---------------------------------------------------------------------
          RMS gradient        0.0057370494            0.0000300000      NO
          MAX gradient        0.0099368869            0.0001000000      NO
          RMS step            0.0102136056            0.0006000000      NO
          MAX step            0.0176905300            0.0010000000      NO
          -------------------------------------------------------------------------
          ........................................................
          Max(Bonds)      0.0094      Max(Angles)    0.00
          Max(Dihed)        0.00      Max(Improp)    0.00
          ---------------------------------------------------------------------

The optimization has not yet converged - more geometry cycles are needed


    ---------------------------------------------------------------------------
                         Redundant Internal Coordinates
                            (Angstroem and degrees)

        Definition                    Value    dE/dq     Step     New-Value
    ----------------------------------------------------------------------------
     1. B(B   1,B   0)                1.5000 -0.009937  0.0094    1.5094   
     2. B(B   2,B   1)                1.5000 -0.009937  0.0094    1.5094   
     3. B(B   3,B   2)                1.5000 -0.009937  0.0094    1.5094   
     4. B(B   4,B   3)                1.5000 -0.009937  0.0094    1.5094   
     5. B(B   5,B   4)                1.5000 -0.009937  0.0094    1.5094   
     6. B(B   6,B   5)                1.5000 -0.009937  0.0094    1.5094   
     7. B(B   7,B   6)                1.5000 -0.009937  0.0094    1.5094   
     8. B(B   8,B   7)                1.5000 -0.009937  0.0094    1.5094   
     9. B(B   9,B   8)                1.5000 -0.009937  0.0094    1.5094   
    10. B(B  10,B   9)                1.5000 -0.009937  0.0094    1.5094   
    11. B(B  11,B  10)                1.5000 -0.009937  0.0094    1.5094   
    12. B(B  11,B   0)                1.5000 -0.009937  0.0094    1.5094   
    13. A(B   1,B   0,B  11)          150.00 -0.000000    0.00    150.00   
    14. A(B   0,B   1,B   2)          150.00  0.000000   -0.00    150.00   
    15. A(B   1,B   2,B   3)          150.00  0.000000   -0.00    150.00   
    16. A(B   2,B   3,B   4)          150.00 -0.000000    0.00    150.00   
    17. A(B   3,B   4,B   5)          150.00  0.000000   -0.00    150.00   
    18. A(B   4,B   5,B   6)          150.00  0.000000   -0.00    150.00   
    19. A(B   5,B   6,B   7)          150.00 -0.000000    0.00    150.00   
    20. A(B   6,B   7,B   8)          150.00  0.000000   -0.00    150.00   
    21. A(B   7,B   8,B   9)          150.00  0.000000   -0.00    150.00   
    22. A(B   8,B   9,B  10)          150.00 -0.000000    0.00    150.00   
    23. A(B   9,B  10,B  11)          150.00  0.000000   -0.00    150.00   
    24. A(B   0,B  11,B  10)          150.00  0.000000   -0.00    150.00   
    25. D(B   2,B   1,B   0,B  11)      0.00 -0.000000    0.00      0.00   
    26. D(B   3,B   2,B   1,B   0)      0.00 -0.000000   -0.00     -0.00   
    27. D(B   4,B   3,B   2,B   1)      0.00  0.000000    0.00      0.00   
    28. D(B   5,B   4,B   3,B   2)      0.00  0.000000    0.00      0.00   
    29. D(B   6,B   5,B   4,B   3)      0.00  0.000000   -0.00     -0.00   
    30. D(B   7,B   6,B   5,B   4)      0.00 -0.000000   -0.00     -0.00   
    31. D(B   8,B   7,B   6,B   5)      0.00 -0.000000    0.00      0.00   
    32. D(B   9,B   8,B   7,B   6)      0.00 -0.000000    0.00      0.00   
    33. D(B  10,B   9,B   8,B   7)      0.00  0.000000   -0.00     -0.00   
    34. D(B  11,B  10,B   9,B   8)      0.00  0.000000   -0.00     -0.00   
    35. D(B   0,B  11,B  10,B   9)      0.00 -0.000000    0.00      0.00   
    36. D(B  10,B  11,B   0,B   1)      0.00 -0.000000   -0.00     -0.00   
    ----------------------------------------------------------------------------

Geometry step timings:
Preparation and reading OPT file:      0.000 s ( 2.232 %)
Internal coordinates            :      0.000 s ( 1.313 %)
B/P matrices and projection     :      0.000 s (16.718 %)
Hessian update/contruction      :      0.001 s (28.665 %)
Making the step                 :      0.000 s (13.611 %)
Converting the step to Cartesian:      0.000 s ( 2.276 %)
Storing new data                :      0.000 s ( 5.077 %)
Checking convergence            :      0.000 s (11.554 %)
Final printing                  :      0.000 s (18.468 %)
Total time                      :      0.002 s

Time for energy+gradient        :      0.042 s
Time for complete geometry iter :      0.046 s

         *************************************************************
         *                GEOMETRY OPTIMIZATION CYCLE   2            *
         *************************************************************
---------------------------------
CARTESIAN COORDINATES (ANGSTROEM)
---------------------------------
  B     2.915862   -0.000000    0.000000
  B     2.525211    1.457931   -0.000000
  B     1.457931    2.525211    0.000000
  B     0.000000    2.915862    0.000000
  B    -1.457931    2.525211   -0.000000
  B    -2.525211    1.457931    0.000000
  B    -2.915862   -0.000000    0.000000
  B    -2.525211   -1.457931   -0.000000
  B    -1.457931   -2.525211   -0.000000
  B     0.000000   -2.915862    0.000000
  B     1.457931   -2.525211    0.000000
  B     2.525211   -1.457931   -0.000000

----------------------------
CARTESIAN COORDINATES (A.U.)
----------------------------
  NO LB    ZA    FRAG    MASS        X           Y           Z
   0 B   5.0000    0    10.810    5.510181   -0.000000    0.000000
   1 B   5.0000    0    10.810    4.771957    2.755091   -0.000000
   2 B   5.0000    0    10.810    2.755091    4.771957    0.000000
   3 B   5.0000    0    10.810    0.000000    5.510181    0.000000
   4 B   5.0000    0    10.810   -2.755091    4.771957   -0.000000
   5 B   5.0000    0    10.810   -4.771957    2.755091    0.000000
   6 B   5.0000    0    10.810   -5.510181   -0.000000    0.000000
   7 B   5.0000    0    10.810   -4.771957   -2.755091   -0.000000
   8 B   5.0000    0    10.810   -2.755091   -4.771957   -0.000000
   9 B   5.0000    0    10.810    0.000000   -5.510181    0.000000
  10 B   5.0000    0    10.810    2.755091   -4.771957    0.000000
  11 B   5.0000    0    10.810    4.771957   -2.755091   -0.000000

      -----------------------------------------------------------      
     |                   =====================                   |     
     |                           x T B                           |     
     |                   =====================                   |     
     |                         S. Grimme                         |     
     |          Mulliken Center for Theoretical Chemistry        |     
     |                    University of Bonn                     |     
      -----------------------------------------------------------      

   * xtb version 6.6.1 (unknown) compiled by 'builduser@buildhost' on 2023-08-07

   xtb is free software: you can redistribute it and/or modify it under
   the terms of the GNU Lesser General Public License as published by
   the Free Software Foundation, either version 3 of the License, or
   (at your option) any later version.
   
   xtb is distributed in the hope that it will be useful,
   but WITHOUT ANY WARRANTY; without even the implied warranty of
   MERCHANTABILITY or FITNESS FOR A PARTICULAR PURPOSE.  See the
   GNU Lesser General Public License for more details.
   
   Cite this work as:
   * C. Bannwarth, E. Caldeweyher, S. Ehlert, A. Hansen, P. Pracht,
     J. Seibert, S. Spicher, S. Grimme, WIREs Comput. Mol. Sci., 2020, 11,
     e01493. DOI: 10.1002/wcms.1493
   
   for GFN2-xTB:
   * C. Bannwarth, S. Ehlert and S. Grimme., J. Chem. Theory Comput., 2019,
     15, 1652-1671. DOI: 10.1021/acs.jctc.8b01176
   for GFN1-xTB:
   * S. Grimme, C. Bannwarth, P. Shushkov, J. Chem. Theory Comput., 2017,
     13, 1989-2009. DOI: 10.1021/acs.jctc.7b00118
   for GFN0-xTB:
   * P. Pracht, E. Caldeweyher, S. Ehlert, S. Grimme, ChemRxiv, 2019, preprint.
     DOI: 10.26434/chemrxiv.8326202.v1
   for GFN-FF:
   * S. Spicher and S. Grimme, Angew. Chem. Int. Ed., 2020, 59, 15665-15673.
     DOI: 10.1002/anie.202004239
   
   for ALPB and GBSA implicit solvation:
   * S. Ehlert, M. Stahn, S. Spicher, S. Grimme, J. Chem. Theory Comput.,
     2021, 17, 4250-4261. DOI: 10.1021/acs.jctc.1c00471
   
   for DFT-D4:
   * E. Caldeweyher, C. Bannwarth and S. Grimme, J. Chem. Phys., 2017,
     147, 034112. DOI: 10.1063/1.4993215
   * E. Caldeweyher, S. Ehlert, A. Hansen, H. Neugebauer, S. Spicher,
     C. Bannwarth and S. Grimme, J. Chem. Phys., 2019, 150, 154122.
     DOI: 10.1063/1.5090222
   * E. Caldeweyher, J.-M. Mewes, S. Ehlert and S. Grimme, Phys. Chem. Chem. Phys.
     2020, 22, 8499-8512. DOI: 10.1039/D0CP00502A
   
   for sTDA-xTB:
   * S. Grimme and C. Bannwarth, J. Chem. Phys., 2016, 145, 054103.
     DOI: 10.1063/1.4959605
   
   in the mass-spec context:
   * V. Asgeirsson, C. Bauer and S. Grimme, Chem. Sci., 2017, 8, 4879.
     DOI: 10.1039/c7sc00601b
   * J. Koopman and S. Grimme, ACS Omega 2019, 4, 12, 15120-15133.
     DOI: 10.1021/acsomega.9b02011
   
   for metadynamics refer to:
   * S. Grimme, J. Chem. Theory Comput., 2019, 155, 2847-2862
     DOI: 10.1021/acs.jctc.9b00143
   
   for SPH calculations refer to:
   * S. Spicher and S. Grimme, J. Chem. Theory Comput., 2021, 17, 1701-1714
     DOI: 10.1021/acs.jctc.0c01306
   
   with help from (in alphabetical order)
   P. Atkinson, C. Bannwarth, F. Bohle, G. Brandenburg, E. Caldeweyher
   M. Checinski, S. Dohm, S. Ehlert, S. Ehrlich, I. Gerasimov, C. Hölzer
   A. Katbashev, J. Koopman, C. Lavigne, S. Lehtola, F. März, M. Müller,
   F. Musil, H. Neugebauer, J. Pisarek, C. Plett, P. Pracht, F. Pultar,
   J. Seibert, P. Shushkov, S. Spicher, M. Stahn, M. Steiner, T. Strunk,
   J. Stückrath, T. Rose, and J. Unsleber
   
 * started run on 2026/04/17 at 12:14:25.139     

           -------------------------------------------------
          |                Calculation Setup                |
           -------------------------------------------------

          program call               : /usr/bin/xtb ring12_d1.50_m1_XTB.xyz --grad -c 0 -u 0 -P 1 --namespace ring12_d1.50_m1 --input ring12_d1.50_m1_XTB.input.tmp --acc 0.200000
          calculation namespace      : ring12_d1.50_m1
          coordinate file            : ring12_d1.50_m1_XTB.xyz
          omp threads                :                     1

   ID    Z sym.   atoms
    1    5 B      1-12

           -------------------------------------------------
          |                 G F N 2 - x T B                 |
           -------------------------------------------------

        Reference                      10.1021/acs.jctc.8b01176
      * Hamiltonian:
        H0-scaling (s, p, d)           1.850000    2.230000    2.230000
        zeta-weighting                 0.500000
      * Dispersion:
        s8                             2.700000
        a1                             0.520000
        a2                             5.000000
        s9                             5.000000
      * Repulsion:
        kExp                           1.500000    1.000000
        rExp                           1.000000
      * Coulomb:
        alpha                          2.000000
        third order                    shell-resolved
        anisotropic                    true
        a3                             3.000000
        a5                             4.000000
        cn-shift                       1.200000
        cn-exp                         4.000000
        max-rad                        5.000000

q/qsh data taken from xtbrestart
CAMM data taken from xtbrestart

          ...................................................
          :                      SETUP                      :
          :.................................................:
          :  # basis functions                  48          :
          :  # atomic orbitals                  48          :
          :  # shells                           24          :
          :  # electrons                        36          :
          :  max. iterations                   250          :
          :  Hamiltonian                  GFN2-xTB          :
          :  restarted?                       true          :
          :  GBSA solvation                  false          :
          :  PC potential                    false          :
          :  electronic temp.          300.0000000     K    :
          :  accuracy                    0.2000000          :
          :  -> integral cutoff          0.3198970E+02      :
          :  -> integral neglect         0.2000000E-08      :
          :  -> SCF convergence          0.2000000E-06 Eh   :
          :  -> wf. convergence          0.2000000E-04 e    :
          :  Broyden damping             0.4000000          :
          ...................................................

 iter      E             dE          RMSdq      gap      omega  full diag
   1    -14.5422195 -0.145422E+02  0.228E-01    0.95       0.0  T
   2    -14.5422199 -0.464105E-06  0.142E-01    0.95       1.0  T
   3    -14.5422202 -0.216721E-06  0.482E-03    0.95       6.0  T
   4    -14.5422191  0.106947E-05  0.444E-03    0.95       6.5  T
   5    -14.5422198 -0.725944E-06  0.254E-03    0.95      11.4  T
   6    -14.5422202 -0.352741E-06  0.105E-04    0.95     276.2  T
   7    -14.5422202  0.120936E-08  0.222E-04    0.95     130.0  T
   8    -14.5422202 -0.101297E-08  0.107E-04    0.95     270.0  T
   9    -14.5422202 -0.289788E-09  0.145E-05    0.95    1987.3  T

   *** convergence criteria satisfied after 9 iterations ***

         #    Occupation            Energy/Eh            Energy/eV
      -------------------------------------------------------------
         1        2.0000           -0.3952492             -10.7553
       ...           ...                  ...                  ...
        12        2.0000           -0.2880163              -7.8373
        13        2.0000           -0.2843297              -7.7370
        14        2.0000           -0.2827905              -7.6951
        15        2.0000           -0.2754400              -7.4951
        16        2.0000           -0.2754399              -7.4951
        17        2.0000           -0.2704954              -7.3606
        18        2.0000           -0.2704953              -7.3606 (HOMO)
        19                         -0.2356188              -6.4115 (LUMO)
        20                         -0.2356187              -6.4115
        21                         -0.2291223              -6.2347
        22                         -0.2291223              -6.2347
        23                         -0.1636878              -4.4542
       ...                                ...                  ...
        48                          1.2520946              34.0712
      -------------------------------------------------------------
                  HL-Gap            0.0348765 Eh            0.9490 eV
             Fermi-level           -0.2530549 Eh           -6.8860 eV

 SCC (total)                   0 d,  0 h,  0 min,  0.021 sec
 SCC setup                      ...        0 min,  0.000 sec (  0.836%)
 Dispersion                     ...        0 min,  0.000 sec (  0.469%)
 classical contributions        ...        0 min,  0.000 sec (  0.170%)
 integral evaluation            ...        0 min,  0.003 sec ( 14.835%)
 iterations                     ...        0 min,  0.011 sec ( 51.202%)
 molecular gradient             ...        0 min,  0.006 sec ( 30.985%)
 printout                       ...        0 min,  0.000 sec (  1.399%)

         :::::::::::::::::::::::::::::::::::::::::::::::::::::
         ::                     SUMMARY                     ::
         :::::::::::::::::::::::::::::::::::::::::::::::::::::
         :: total energy             -14.251302227929 Eh    ::
         :: gradient norm              0.004978360495 Eh/a0 ::
         :: HOMO-LUMO gap              0.949039069542 eV    ::
         ::.................................................::
         :: SCC energy               -14.542220161215 Eh    ::
         :: -> isotropic ES            0.093349223891 Eh    ::
         :: -> anisotropic ES          0.002329472843 Eh    ::
         :: -> anisotropic XC         -0.039571669916 Eh    ::
         :: -> dispersion             -0.012584439547 Eh    ::
         :: repulsion energy           0.290780719600 Eh    ::
         :: add. restraining           0.000000000000 Eh    ::
         :: total charge               0.000000000187 e     ::
         :::::::::::::::::::::::::::::::::::::::::::::::::::::


Property printout bound to 'properties.out'

           -------------------------------------------------
          | TOTAL ENERGY              -14.251302227929 Eh   |
          | GRADIENT NORM               0.004978360495 Eh/α |
          | HOMO-LUMO GAP               0.949039069542 eV   |
           -------------------------------------------------

------------------------------------------------------------------------
 * finished run on 2026/04/17 at 12:14:25.172     
------------------------------------------------------------------------
 total:
 * wall-time:     0 d,  0 h,  0 min,  0.033 sec
 *  cpu-time:     0 d,  0 h,  0 min,  0.033 sec
 * ratio c/w:     0.999 speedup
 SCF:
 * wall-time:     0 d,  0 h,  0 min,  0.021 sec
 *  cpu-time:     0 d,  0 h,  0 min,  0.021 sec
 * ratio c/w:     1.000 speedup


-------------------------   --------------------
FINAL SINGLE POINT ENERGY       -14.251302227930
-------------------------   --------------------


-------------
DIPOLE MOMENT
-------------
                                X             Y             Z
Total Dipole Moment    :      0.00000       0.00000      -0.00000
                        -----------------------------------------
Magnitude (a.u.)       :      0.00000
Magnitude (Debye)      :      0.00000


------------------
CARTESIAN GRADIENT
------------------

   1   B   :   -0.001437177    0.000000014    0.000000000
   2   B   :   -0.001244522   -0.000718702   -0.000000000
   3   B   :   -0.000718492   -0.001244574    0.000000000
   4   B   :   -0.000000113   -0.001437093    0.000000000
   5   B   :    0.000718501   -0.001244656   -0.000000000
   6   B   :    0.001244645   -0.000718547    0.000000000
   7   B   :    0.001437128    0.000000086    0.000000000
   8   B   :    0.001244576    0.000718547   -0.000000000
   9   B   :    0.000718606    0.001244560   -0.000000000
  10   B   :   -0.000000042    0.001437124    0.000000000
  11   B   :   -0.000718567    0.001244569    0.000000000
  12   B   :   -0.001244544    0.000718671   -0.000000000

Difference to translation invariance:
           :    0.0000000000    0.0000000000    0.0000000000

Difference to rotation invariance:
           :    0.0000000000   -0.0000000000    0.0000000000

Norm of the Cartesian gradient     ...    0.0049783605
RMS gradient                       ...    0.0008297267
MAX gradient                       ...    0.0014371765
------------------------------------------------------------------------------
                         ORCA GEOMETRY RELAXATION STEP
------------------------------------------------------------------------------

Reading the OPT-File                    .... done
Getting information on internals        .... done
Copying old internal coords+grads       .... done
Making the new internal coordinates     .... (2022 redundants) done
Validating the new internal coordinates .... (2022 redundants) done
Calculating the B-matrix                .... done
Calculating the G,G- and P matrices     .... done
Transforming gradient to internals      .... done
Projecting the internal gradient        .... done
Number of atoms                         ....  12
Number of internal coordinates          ....  36
Current Energy                          ....   -14.251302228 Eh
Current gradient norm                   ....     0.004978360 Eh/bohr
Maximum allowed component of the step   ....  0.300
Current trust radius                    ....  0.300
Updating the Hessian (BFGS)             .... done
Forming the augmented Hessian           .... done
Diagonalizing the augmented Hessian     .... done
Last element of RFO vector              ....  0.999718159
Lowest eigenvalues of augmented Hessian:
 -0.000228386  0.011884002  0.011884002  0.011884002  0.011884002
Length of the computed step             ....  0.023747014
The final length of the internal step   ....  0.023747014
Converting the step to Cartesian space:
 Initial RMS(Int)=    0.0039578356
Transforming coordinates:
 Iter   0:  RMS(Cart)=    0.0076459513 RMS(Int)=    0.0039578356
done
Storing new coordinates                 .... done
The predicted energy change is          ....    -0.000114257
Previously predicted energy change      ....    -0.001058688
Actually observed energy change         ....    -0.001341756
Ratio of predicted to observed change   ....     1.267375538
New trust radius                        ....     0.300000000

                                .--------------------.
          ----------------------|Geometry convergence|-------------------------
          Item                value                   Tolerance       Converged
          ---------------------------------------------------------------------
          Energy change      -0.0013417556            0.0000010000      NO
          RMS gradient        0.0016029090            0.0000300000      NO
          MAX gradient        0.0027764151            0.0001000000      NO
          RMS step            0.0039578356            0.0006000000      NO
          MAX step            0.0068554086            0.0010000000      NO
          -------------------------------------------------------------------------
          ........................................................
          Max(Bonds)      0.0036      Max(Angles)    0.00
          Max(Dihed)        0.00      Max(Improp)    0.00
          ---------------------------------------------------------------------

The optimization has not yet converged - more geometry cycles are needed


    ---------------------------------------------------------------------------
                         Redundant Internal Coordinates
                            (Angstroem and degrees)

        Definition                    Value    dE/dq     Step     New-Value
    ----------------------------------------------------------------------------
     1. B(B   1,B   0)                1.5094 -0.002776  0.0036    1.5130   
     2. B(B   2,B   1)                1.5094 -0.002776  0.0036    1.5130   
     3. B(B   3,B   2)                1.5094 -0.002776  0.0036    1.5130   
     4. B(B   4,B   3)                1.5094 -0.002776  0.0036    1.5130   
     5. B(B   5,B   4)                1.5094 -0.002776  0.0036    1.5130   
     6. B(B   6,B   5)                1.5094 -0.002776  0.0036    1.5130   
     7. B(B   7,B   6)                1.5094 -0.002776  0.0036    1.5130   
     8. B(B   8,B   7)                1.5094 -0.002776  0.0036    1.5130   
     9. B(B   9,B   8)                1.5094 -0.002776  0.0036    1.5130   
    10. B(B  10,B   9)                1.5094 -0.002776  0.0036    1.5130   
    11. B(B  11,B  10)                1.5094 -0.002776  0.0036    1.5130   
    12. B(B  11,B   0)                1.5094 -0.002776  0.0036    1.5130   
    13. A(B   1,B   0,B  11)          150.00  0.000000   -0.00    150.00   
    14. A(B   0,B   1,B   2)          150.00  0.000000   -0.00    150.00   
    15. A(B   1,B   2,B   3)          150.00 -0.000000    0.00    150.00   
    16. A(B   2,B   3,B   4)          150.00 -0.000000    0.00    150.00   
    17. A(B   3,B   4,B   5)          150.00  0.000000   -0.00    150.00   
    18. A(B   4,B   5,B   6)          150.00  0.000000   -0.00    150.00   
    19. A(B   5,B   6,B   7)          150.00  0.000000   -0.00    150.00   
    20. A(B   6,B   7,B   8)          150.00 -0.000000    0.00    150.00   
    21. A(B   7,B   8,B   9)          150.00 -0.000000    0.00    150.00   
    22. A(B   8,B   9,B  10)          150.00 -0.000000    0.00    150.00   
    23. A(B   9,B  10,B  11)          150.00  0.000000   -0.00    150.00   
    24. A(B   0,B  11,B  10)          150.00  0.000000   -0.00    150.00   
    25. D(B   2,B   1,B   0,B  11)      0.00  0.000000   -0.00     -0.00   
    26. D(B   3,B   2,B   1,B   0)     -0.00 -0.000000    0.00     -0.00   
    27. D(B   4,B   3,B   2,B   1)      0.00 -0.000000    0.00      0.00   
    28. D(B   5,B   4,B   3,B   2)      0.00  0.000000   -0.00     -0.00   
    29. D(B   6,B   5,B   4,B   3)     -0.00 -0.000000    0.00     -0.00   
    30. D(B   7,B   6,B   5,B   4)     -0.00  0.000000   -0.00     -0.00   
    31. D(B   8,B   7,B   6,B   5)      0.00  0.000000   -0.00     -0.00   
    32. D(B   9,B   8,B   7,B   6)      0.00 -0.000000    0.00      0.00   
    33. D(B  10,B   9,B   8,B   7)     -0.00 -0.000000    0.00      0.00   
    34. D(B  11,B  10,B   9,B   8)     -0.00  0.000000   -0.00     -0.00   
    35. D(B   0,B  11,B  10,B   9)      0.00  0.000000   -0.00      0.00   
    36. D(B  10,B  11,B   0,B   1)     -0.00 -0.000000    0.00      0.00   
    ----------------------------------------------------------------------------

Geometry step timings:
Preparation and reading OPT file:      0.000 s ( 1.734 %)
Internal coordinates            :      0.000 s ( 1.798 %)
B/P matrices and projection     :      0.000 s (26.461 %)
Hessian update/contruction      :      0.000 s (20.039 %)
Making the step                 :      0.000 s (16.249 %)
Converting the step to Cartesian:      0.000 s ( 2.248 %)
Storing new data                :      0.000 s ( 2.376 %)
Checking convergence            :      0.000 s ( 6.936 %)
Final printing                  :      0.000 s (22.158 %)
Total time                      :      0.002 s

Time for energy+gradient        :      0.043 s
Time for complete geometry iter :      0.046 s

         *************************************************************
         *                GEOMETRY OPTIMIZATION CYCLE   3            *
         *************************************************************
---------------------------------
CARTESIAN COORDINATES (ANGSTROEM)
---------------------------------
  B     2.922870    0.000000   -0.000000
  B     2.531280    1.461435   -0.000000
  B     1.461435    2.531280    0.000000
  B     0.000000    2.922870   -0.000000
  B    -1.461435    2.531280   -0.000000
  B    -2.531280    1.461435   -0.000000
  B    -2.922870   -0.000000    0.000000
  B    -2.531280   -1.461435    0.000000
  B    -1.461435   -2.531280   -0.000000
  B     0.000000   -2.922870   -0.000000
  B     1.461435   -2.531280    0.000000
  B     2.531280   -1.461435    0.000000

----------------------------
CARTESIAN COORDINATES (A.U.)
----------------------------
  NO LB    ZA    FRAG    MASS        X           Y           Z
   0 B   5.0000    0    10.810    5.523424    0.000000   -0.000000
   1 B   5.0000    0    10.810    4.783426    2.761712   -0.000000
   2 B   5.0000    0    10.810    2.761712    4.783426    0.000000
   3 B   5.0000    0    10.810    0.000000    5.523424   -0.000000
   4 B   5.0000    0    10.810   -2.761712    4.783426   -0.000000
   5 B   5.0000    0    10.810   -4.783426    2.761712   -0.000000
   6 B   5.0000    0    10.810   -5.523424   -0.000000    0.000000
   7 B   5.0000    0    10.810   -4.783426   -2.761712    0.000000
   8 B   5.0000    0    10.810   -2.761712   -4.783426   -0.000000
   9 B   5.0000    0    10.810    0.000000   -5.523424   -0.000000
  10 B   5.0000    0    10.810    2.761712   -4.783426    0.000000
  11 B   5.0000    0    10.810    4.783426   -2.761712    0.000000

      -----------------------------------------------------------      
     |                   =====================                   |     
     |                           x T B                           |     
     |                   =====================                   |     
     |                         S. Grimme                         |     
     |          Mulliken Center for Theoretical Chemistry        |     
     |                    University of Bonn                     |     
      -----------------------------------------------------------      

   * xtb version 6.6.1 (unknown) compiled by 'builduser@buildhost' on 2023-08-07

   xtb is free software: you can redistribute it and/or modify it under
   the terms of the GNU Lesser General Public License as published by
   the Free Software Foundation, either version 3 of the License, or
   (at your option) any later version.
   
   xtb is distributed in the hope that it will be useful,
   but WITHOUT ANY WARRANTY; without even the implied warranty of
   MERCHANTABILITY or FITNESS FOR A PARTICULAR PURPOSE.  See the
   GNU Lesser General Public License for more details.
   
   Cite this work as:
   * C. Bannwarth, E. Caldeweyher, S. Ehlert, A. Hansen, P. Pracht,
     J. Seibert, S. Spicher, S. Grimme, WIREs Comput. Mol. Sci., 2020, 11,
     e01493. DOI: 10.1002/wcms.1493
   
   for GFN2-xTB:
   * C. Bannwarth, S. Ehlert and S. Grimme., J. Chem. Theory Comput., 2019,
     15, 1652-1671. DOI: 10.1021/acs.jctc.8b01176
   for GFN1-xTB:
   * S. Grimme, C. Bannwarth, P. Shushkov, J. Chem. Theory Comput., 2017,
     13, 1989-2009. DOI: 10.1021/acs.jctc.7b00118
   for GFN0-xTB:
   * P. Pracht, E. Caldeweyher, S. Ehlert, S. Grimme, ChemRxiv, 2019, preprint.
     DOI: 10.26434/chemrxiv.8326202.v1
   for GFN-FF:
   * S. Spicher and S. Grimme, Angew. Chem. Int. Ed., 2020, 59, 15665-15673.
     DOI: 10.1002/anie.202004239
   
   for ALPB and GBSA implicit solvation:
   * S. Ehlert, M. Stahn, S. Spicher, S. Grimme, J. Chem. Theory Comput.,
     2021, 17, 4250-4261. DOI: 10.1021/acs.jctc.1c00471
   
   for DFT-D4:
   * E. Caldeweyher, C. Bannwarth and S. Grimme, J. Chem. Phys., 2017,
     147, 034112. DOI: 10.1063/1.4993215
   * E. Caldeweyher, S. Ehlert, A. Hansen, H. Neugebauer, S. Spicher,
     C. Bannwarth and S. Grimme, J. Chem. Phys., 2019, 150, 154122.
     DOI: 10.1063/1.5090222
   * E. Caldeweyher, J.-M. Mewes, S. Ehlert and S. Grimme, Phys. Chem. Chem. Phys.
     2020, 22, 8499-8512. DOI: 10.1039/D0CP00502A
   
   for sTDA-xTB:
   * S. Grimme and C. Bannwarth, J. Chem. Phys., 2016, 145, 054103.
     DOI: 10.1063/1.4959605
   
   in the mass-spec context:
   * V. Asgeirsson, C. Bauer and S. Grimme, Chem. Sci., 2017, 8, 4879.
     DOI: 10.1039/c7sc00601b
   * J. Koopman and S. Grimme, ACS Omega 2019, 4, 12, 15120-15133.
     DOI: 10.1021/acsomega.9b02011
   
   for metadynamics refer to:
   * S. Grimme, J. Chem. Theory Comput., 2019, 155, 2847-2862
     DOI: 10.1021/acs.jctc.9b00143
   
   for SPH calculations refer to:
   * S. Spicher and S. Grimme, J. Chem. Theory Comput., 2021, 17, 1701-1714
     DOI: 10.1021/acs.jctc.0c01306
   
   with help from (in alphabetical order)
   P. Atkinson, C. Bannwarth, F. Bohle, G. Brandenburg, E. Caldeweyher
   M. Checinski, S. Dohm, S. Ehlert, S. Ehrlich, I. Gerasimov, C. Hölzer
   A. Katbashev, J. Koopman, C. Lavigne, S. Lehtola, F. März, M. Müller,
   F. Musil, H. Neugebauer, J. Pisarek, C. Plett, P. Pracht, F. Pultar,
   J. Seibert, P. Shushkov, S. Spicher, M. Stahn, M. Steiner, T. Strunk,
   J. Stückrath, T. Rose, and J. Unsleber
   
 * started run on 2026/04/17 at 12:14:25.184     

           -------------------------------------------------
          |                Calculation Setup                |
           -------------------------------------------------

          program call               : /usr/bin/xtb ring12_d1.50_m1_XTB.xyz --grad -c 0 -u 0 -P 1 --namespace ring12_d1.50_m1 --input ring12_d1.50_m1_XTB.input.tmp --acc 0.200000
          calculation namespace      : ring12_d1.50_m1
          coordinate file            : ring12_d1.50_m1_XTB.xyz
          omp threads                :                     1

   ID    Z sym.   atoms
    1    5 B      1-12

           -------------------------------------------------
          |                 G F N 2 - x T B                 |
           -------------------------------------------------

        Reference                      10.1021/acs.jctc.8b01176
      * Hamiltonian:
        H0-scaling (s, p, d)           1.850000    2.230000    2.230000
        zeta-weighting                 0.500000
      * Dispersion:
        s8                             2.700000
        a1                             0.520000
        a2                             5.000000
        s9                             5.000000
      * Repulsion:
        kExp                           1.500000    1.000000
        rExp                           1.000000
      * Coulomb:
        alpha                          2.000000
        third order                    shell-resolved
        anisotropic                    true
        a3                             3.000000
        a5                             4.000000
        cn-shift                       1.200000
        cn-exp                         4.000000
        max-rad                        5.000000

q/qsh data taken from xtbrestart
CAMM data taken from xtbrestart

          ...................................................
          :                      SETUP                      :
          :.................................................:
          :  # basis functions                  48          :
          :  # atomic orbitals                  48          :
          :  # shells                           24          :
          :  # electrons                        36          :
          :  max. iterations                   250          :
          :  Hamiltonian                  GFN2-xTB          :
          :  restarted?                       true          :
          :  GBSA solvation                  false          :
          :  PC potential                    false          :
          :  electronic temp.          300.0000000     K    :
          :  accuracy                    0.2000000          :
          :  -> integral cutoff          0.3198970E+02      :
          :  -> integral neglect         0.2000000E-08      :
          :  -> SCF convergence          0.2000000E-06 Eh   :
          :  -> wf. convergence          0.2000000E-04 e    :
          :  Broyden damping             0.4000000          :
          ...................................................

 iter      E             dE          RMSdq      gap      omega  full diag
   1    -14.5347989 -0.145348E+02  0.877E-02    0.95       0.0  T
   2    -14.5347990 -0.685678E-07  0.545E-02    0.95       1.0  T
   3    -14.5347990 -0.327339E-07  0.185E-03    0.95      15.6  T
   4    -14.5347990  0.104963E-07  0.678E-04    0.95      42.6  T
   5    -14.5347990  0.223685E-07  0.111E-03    0.95      26.1  T
   6    -14.5347990 -0.280136E-07  0.324E-04    0.95      89.2  T
   7    -14.5347990 -0.548299E-08  0.394E-05    0.95     733.2  T
   8    -14.5347990  0.321156E-09  0.104E-04    0.95     277.9  T

   *** convergence criteria satisfied after 8 iterations ***

         #    Occupation            Energy/Eh            Energy/eV
      -------------------------------------------------------------
         1        2.0000           -0.3950321             -10.7494
       ...           ...                  ...                  ...
        12        2.0000           -0.2876617              -7.8277
        13        2.0000           -0.2846821              -7.7466
        14        2.0000           -0.2824668              -7.6863
        15        2.0000           -0.2751339              -7.4868
        16        2.0000           -0.2751333              -7.4868
        17        2.0000           -0.2702252              -7.3532
        18        2.0000           -0.2702246              -7.3532 (HOMO)
        19                         -0.2354873              -6.4079 (LUMO)
        20                         -0.2354873              -6.4079
        21                         -0.2290659              -6.2332
        22                         -0.2290659              -6.2332
        23                         -0.1639574              -4.4615
       ...                                ...                  ...
        48                          1.2366130              33.6500
      -------------------------------------------------------------
                  HL-Gap            0.0347373 Eh            0.9453 eV
             Fermi-level           -0.2528540 Eh           -6.8805 eV

 SCC (total)                   0 d,  0 h,  0 min,  0.019 sec
 SCC setup                      ...        0 min,  0.000 sec (  0.777%)
 Dispersion                     ...        0 min,  0.000 sec (  0.557%)
 classical contributions        ...        0 min,  0.000 sec (  0.189%)
 integral evaluation            ...        0 min,  0.003 sec ( 15.262%)
 iterations                     ...        0 min,  0.009 sec ( 49.682%)
 molecular gradient             ...        0 min,  0.006 sec ( 31.654%)
 printout                       ...        0 min,  0.000 sec (  1.759%)

         :::::::::::::::::::::::::::::::::::::::::::::::::::::
         ::                     SUMMARY                     ::
         :::::::::::::::::::::::::::::::::::::::::::::::::::::
         :: total energy             -14.251420762299 Eh    ::
         :: gradient norm              0.000207914355 Eh/a0 ::
         :: HOMO-LUMO gap              0.945250408133 eV    ::
         ::.................................................::
         :: SCC energy               -14.534799005391 Eh    ::
         :: -> isotropic ES            0.093381690432 Eh    ::
         :: -> anisotropic ES          0.002371756145 Eh    ::
         :: -> anisotropic XC         -0.039927273503 Eh    ::
         :: -> dispersion             -0.012536994447 Eh    ::
         :: repulsion energy           0.283240283257 Eh    ::
         :: add. restraining           0.000000000000 Eh    ::
         :: total charge               0.000000000204 e     ::
         :::::::::::::::::::::::::::::::::::::::::::::::::::::


Property printout bound to 'properties.out'

           -------------------------------------------------
          | TOTAL ENERGY              -14.251420762299 Eh   |
          | GRADIENT NORM               0.000207914355 Eh/α |
          | HOMO-LUMO GAP               0.945250408133 eV   |
           -------------------------------------------------

------------------------------------------------------------------------
 * finished run on 2026/04/17 at 12:14:25.215     
------------------------------------------------------------------------
 total:
 * wall-time:     0 d,  0 h,  0 min,  0.031 sec
 *  cpu-time:     0 d,  0 h,  0 min,  0.031 sec
 * ratio c/w:     0.998 speedup
 SCF:
 * wall-time:     0 d,  0 h,  0 min,  0.019 sec
 *  cpu-time:     0 d,  0 h,  0 min,  0.019 sec
 * ratio c/w:     1.000 speedup


-------------------------   --------------------
FINAL SINGLE POINT ENERGY       -14.251420762300
-------------------------   --------------------


-------------
DIPOLE MOMENT
-------------
                                X             Y             Z
Total Dipole Moment    :      0.00000       0.00000      -0.00000
                        -----------------------------------------
Magnitude (a.u.)       :      0.00000
Magnitude (Debye)      :      0.00000


------------------
CARTESIAN GRADIENT
------------------

   1   B   :   -0.000060124   -0.000000483   -0.000000000
   2   B   :   -0.000051911   -0.000030026   -0.000000000
   3   B   :   -0.000030005   -0.000051902    0.000000000
   4   B   :    0.000000081   -0.000059936   -0.000000000
   5   B   :    0.000029804   -0.000052066   -0.000000000
   6   B   :    0.000051909   -0.000030468   -0.000000000
   7   B   :    0.000060271    0.000000124    0.000000000
   8   B   :    0.000051545    0.000030712    0.000000000
   9   B   :    0.000029445    0.000051864   -0.000000000
  10   B   :    0.000000690    0.000059704   -0.000000000
  11   B   :   -0.000029391    0.000052462    0.000000000
  12   B   :   -0.000052314    0.000030015    0.000000000

Difference to translation invariance:
           :    0.0000000000   -0.0000000000    0.0000000000

Difference to rotation invariance:
           :   -0.0000000000   -0.0000000000   -0.0000000155

Norm of the Cartesian gradient     ...    0.0002079144
RMS gradient                       ...    0.0000346524
MAX gradient                       ...    0.0000602710
------------------------------------------------------------------------------
                         ORCA GEOMETRY RELAXATION STEP
------------------------------------------------------------------------------

Reading the OPT-File                    .... done
Getting information on internals        .... done
Copying old internal coords+grads       .... done
Making the new internal coordinates     .... (2022 redundants) done
Validating the new internal coordinates .... (2022 redundants) done
Calculating the B-matrix                .... done
Calculating the G,G- and P matrices     .... done
Transforming gradient to internals      .... done
Projecting the internal gradient        .... done
Number of atoms                         ....  12
Number of internal coordinates          ....  36
Current Energy                          ....   -14.251420762 Eh
Current gradient norm                   ....     0.000207914 Eh/bohr
Maximum allowed component of the step   ....  0.300
Current trust radius                    ....  0.300
Updating the Hessian (BFGS)             .... done
Forming the augmented Hessian           .... done
Diagonalizing the augmented Hessian     .... done
Last element of RFO vector              ....  0.999999464
Lowest eigenvalues of augmented Hessian:
 -0.000000416  0.011884002  0.011884002  0.011884002  0.011884002
Length of the computed step             ....  0.001034952
The final length of the internal step   ....  0.001034952
Converting the step to Cartesian space:
 Initial RMS(Int)=    0.0001724920
Transforming coordinates:
 Iter   0:  RMS(Cart)=    0.0003332282 RMS(Int)=    0.0001724920
done
Storing new coordinates                 .... done
The predicted energy change is          ....    -0.000000208
Previously predicted energy change      ....    -0.000114257
Actually observed energy change         ....    -0.000118534
Ratio of predicted to observed change   ....     1.037433656
New trust radius                        ....     0.450000000

                                .--------------------.
          ----------------------|Geometry convergence|-------------------------
          Item                value                   Tolerance       Converged
          ---------------------------------------------------------------------
          Energy change      -0.0001185344            0.0000010000      NO
          RMS gradient        0.0000669414            0.0000300000      NO
          MAX gradient        0.0001165411            0.0001000000      NO
          RMS step            0.0001724920            0.0006000000      YES
          MAX step            0.0002998735            0.0010000000      YES
          -------------------------------------------------------------------------
          ........................................................
          Max(Bonds)      0.0002      Max(Angles)    0.00
          Max(Dihed)        0.00      Max(Improp)    0.00
          ---------------------------------------------------------------------

       The step convergence is overachieved with 
       reasonable convergence on the gradient
       Convergence will therefore be signaled now


                    ***********************HURRAY********************
                    ***        THE OPTIMIZATION HAS CONVERGED     ***
                    *************************************************


    ---------------------------------------------------------------------------
                         Redundant Internal Coordinates

                          --- Optimized Parameters ---  
                            (Angstroem and degrees)

        Definition                    OldVal   dE/dq     Step     FinalVal
    ----------------------------------------------------------------------------
     1. B(B   1,B   0)                1.5130 -0.000116  0.0002    1.5131   
     2. B(B   2,B   1)                1.5130 -0.000116  0.0002    1.5131   
[...]
    20. A(B   6,B   7,B   8)          150.00 -0.000000    0.00    150.00   
    21. A(B   7,B   8,B   9)          150.00 -0.000000    0.00    150.00   
    22. A(B   8,B   9,B  10)          150.00 -0.000000    0.00    150.00   
    23. A(B   9,B  10,B  11)          150.00  0.000000   -0.00    150.00   
    24. A(B   0,B  11,B  10)          150.00  0.000000   -0.00    150.00   
    25. D(B   2,B   1,B   0,B  11)     -0.00 -0.000000    0.00      0.00   
    26. D(B   3,B   2,B   1,B   0)     -0.00 -0.000000    0.00      0.00   
    27. D(B   4,B   3,B   2,B   1)      0.00  0.000000   -0.00     -0.00   
    28. D(B   5,B   4,B   3,B   2)     -0.00  0.000000   -0.00     -0.00   
    29. D(B   6,B   5,B   4,B   3)     -0.00 -0.000000    0.00      0.00   
    30. D(B   7,B   6,B   5,B   4)     -0.00 -0.000000    0.00      0.00   
    31. D(B   8,B   7,B   6,B   5)     -0.00 -0.000000    0.00      0.00   
    32. D(B   9,B   8,B   7,B   6)      0.00  0.000000   -0.00     -0.00   
    33. D(B  10,B   9,B   8,B   7)      0.00  0.000000   -0.00     -0.00   
    34. D(B  11,B  10,B   9,B   8)     -0.00 -0.000000    0.00      0.00   
    35. D(B   0,B  11,B  10,B   9)      0.00  0.000000   -0.00     -0.00   
    36. D(B  10,B  11,B   0,B   1)      0.00  0.000000   -0.00     -0.00   
    ----------------------------------------------------------------------------

Geometry step timings:
Preparation and reading OPT file:      0.000 s ( 2.678 %)
Internal coordinates            :      0.000 s ( 1.829 %)
B/P matrices and projection     :      0.000 s (25.278 %)
Hessian update/contruction      :      0.000 s (20.248 %)
Making the step                 :      0.000 s (17.178 %)
Converting the step to Cartesian:      0.000 s ( 2.025 %)
Storing new data                :      0.000 s ( 4.311 %)
Checking convergence            :      0.000 s ( 4.507 %)
Final printing                  :      0.000 s (18.419 %)
Total time                      :      0.002 s
                 *******************************************************
                 *** FINAL ENERGY EVALUATION AT THE STATIONARY POINT ***
                 ***               (AFTER    3 CYCLES)               ***
                 *******************************************************
---------------------------------
CARTESIAN COORDINATES (ANGSTROEM)
---------------------------------
  B     2.923176    0.000000    0.000000
  B     2.531544    1.461588   -0.000000
  B     1.461588    2.531544   -0.000000
  B     0.000000    2.923176   -0.000000
  B    -1.461588    2.531545    0.000000
  B    -2.531544    1.461588    0.000000
  B    -2.923176   -0.000000   -0.000000
  B    -2.531544   -1.461588   -0.000000
  B    -1.461588   -2.531544    0.000000
  B    -0.000001   -2.923176    0.000000
  B     1.461587   -2.531545   -0.000000
  B     2.531544   -1.461588   -0.000000

----------------------------
CARTESIAN COORDINATES (A.U.)
----------------------------
  NO LB    ZA    FRAG    MASS        X           Y           Z
   0 B   5.0000    0    10.810    5.524002    0.000001    0.000000
   1 B   5.0000    0    10.810    4.783926    2.762001   -0.000000
   2 B   5.0000    0    10.810    2.762001    4.783926   -0.000000
   3 B   5.0000    0    10.810    0.000000    5.524001   -0.000000
   4 B   5.0000    0    10.810   -2.762000    4.783926    0.000000
   5 B   5.0000    0    10.810   -4.783926    2.762001    0.000000
   6 B   5.0000    0    10.810   -5.524002   -0.000001   -0.000000
   7 B   5.0000    0    10.810   -4.783925   -2.762002   -0.000000
   8 B   5.0000    0    10.810   -2.762000   -4.783926    0.000000
   9 B   5.0000    0    10.810   -0.000001   -5.524001    0.000000
  10 B   5.0000    0    10.810    2.762000   -4.783926   -0.000000
  11 B   5.0000    0    10.810    4.783926   -2.762001   -0.000000

      -----------------------------------------------------------      
     |                   =====================                   |     
     |                           x T B                           |     
     |                   =====================                   |     
     |                         S. Grimme                         |     
     |          Mulliken Center for Theoretical Chemistry        |     
     |                    University of Bonn                     |     
      -----------------------------------------------------------      

   * xtb version 6.6.1 (unknown) compiled by 'builduser@buildhost' on 2023-08-07

   xtb is free software: you can redistribute it and/or modify it under
   the terms of the GNU Lesser General Public License as published by
   the Free Software Foundation, either version 3 of the License, or
   (at your option) any later version.
   
   xtb is distributed in the hope that it will be useful,
   but WITHOUT ANY WARRANTY; without even the implied warranty of
   MERCHANTABILITY or FITNESS FOR A PARTICULAR PURPOSE.  See the
   GNU Lesser General Public License for more details.
   
   Cite this work as:
   * C. Bannwarth, E. Caldeweyher, S. Ehlert, A. Hansen, P. Pracht,
     J. Seibert, S. Spicher, S. Grimme, WIREs Comput. Mol. Sci., 2020, 11,
     e01493. DOI: 10.1002/wcms.1493
   
   for GFN2-xTB:
   * C. Bannwarth, S. Ehlert and S. Grimme., J. Chem. Theory Comput., 2019,
     15, 1652-1671. DOI: 10.1021/acs.jctc.8b01176
   for GFN1-xTB:
   * S. Grimme, C. Bannwarth, P. Shushkov, J. Chem. Theory Comput., 2017,
     13, 1989-2009. DOI: 10.1021/acs.jctc.7b00118
   for GFN0-xTB:
   * P. Pracht, E. Caldeweyher, S. Ehlert, S. Grimme, ChemRxiv, 2019, preprint.
     DOI: 10.26434/chemrxiv.8326202.v1
   for GFN-FF:
   * S. Spicher and S. Grimme, Angew. Chem. Int. Ed., 2020, 59, 15665-15673.
     DOI: 10.1002/anie.202004239
   
   for ALPB and GBSA implicit solvation:
   * S. Ehlert, M. Stahn, S. Spicher, S. Grimme, J. Chem. Theory Comput.,
     2021, 17, 4250-4261. DOI: 10.1021/acs.jctc.1c00471
   
   for DFT-D4:
   * E. Caldeweyher, C. Bannwarth and S. Grimme, J. Chem. Phys., 2017,
     147, 034112. DOI: 10.1063/1.4993215
   * E. Caldeweyher, S. Ehlert, A. Hansen, H. Neugebauer, S. Spicher,
     C. Bannwarth and S. Grimme, J. Chem. Phys., 2019, 150, 154122.
     DOI: 10.1063/1.5090222
   * E. Caldeweyher, J.-M. Mewes, S. Ehlert and S. Grimme, Phys. Chem. Chem. Phys.
     2020, 22, 8499-8512. DOI: 10.1039/D0CP00502A
   
   for sTDA-xTB:
   * S. Grimme and C. Bannwarth, J. Chem. Phys., 2016, 145, 054103.
     DOI: 10.1063/1.4959605
   
   in the mass-spec context:
   * V. Asgeirsson, C. Bauer and S. Grimme, Chem. Sci., 2017, 8, 4879.
     DOI: 10.1039/c7sc00601b
   * J. Koopman and S. Grimme, ACS Omega 2019, 4, 12, 15120-15133.
     DOI: 10.1021/acsomega.9b02011
   
   for metadynamics refer to:
   * S. Grimme, J. Chem. Theory Comput., 2019, 155, 2847-2862
     DOI: 10.1021/acs.jctc.9b00143
   
   for SPH calculations refer to:
   * S. Spicher and S. Grimme, J. Chem. Theory Comput., 2021, 17, 1701-1714
     DOI: 10.1021/acs.jctc.0c01306
   
   with help from (in alphabetical order)
   P. Atkinson, C. Bannwarth, F. Bohle, G. Brandenburg, E. Caldeweyher
   M. Checinski, S. Dohm, S. Ehlert, S. Ehrlich, I. Gerasimov, C. Hölzer
   A. Katbashev, J. Koopman, C. Lavigne, S. Lehtola, F. März, M. Müller,
   F. Musil, H. Neugebauer, J. Pisarek, C. Plett, P. Pracht, F. Pultar,
   J. Seibert, P. Shushkov, S. Spicher, M. Stahn, M. Steiner, T. Strunk,
   J. Stückrath, T. Rose, and J. Unsleber
   
 * started run on 2026/04/17 at 12:14:25.229     

           -------------------------------------------------
          |                Calculation Setup                |
           -------------------------------------------------

          program call               : /usr/bin/xtb ring12_d1.50_m1_XTB.xyz --grad -c 0 -u 0 -P 1 --namespace ring12_d1.50_m1 --input ring12_d1.50_m1_XTB.input.tmp --acc 0.200000
          calculation namespace      : ring12_d1.50_m1
          coordinate file            : ring12_d1.50_m1_XTB.xyz
          omp threads                :                     1

   ID    Z sym.   atoms
    1    5 B      1-12

           -------------------------------------------------
          |                 G F N 2 - x T B                 |
           -------------------------------------------------

        Reference                      10.1021/acs.jctc.8b01176
      * Hamiltonian:
        H0-scaling (s, p, d)           1.850000    2.230000    2.230000
        zeta-weighting                 0.500000
      * Dispersion:
        s8                             2.700000
        a1                             0.520000
        a2                             5.000000
        s9                             5.000000
      * Repulsion:
        kExp                           1.500000    1.000000
        rExp                           1.000000
      * Coulomb:
        alpha                          2.000000
        third order                    shell-resolved
        anisotropic                    true
        a3                             3.000000
        a5                             4.000000
        cn-shift                       1.200000
        cn-exp                         4.000000
        max-rad                        5.000000

q/qsh data taken from xtbrestart
CAMM data taken from xtbrestart

          ...................................................
          :                      SETUP                      :
          :.................................................:
          :  # basis functions                  48          :
          :  # atomic orbitals                  48          :
          :  # shells                           24          :
          :  # electrons                        36          :
          :  max. iterations                   250          :
          :  Hamiltonian                  GFN2-xTB          :
          :  restarted?                       true          :
          :  GBSA solvation                  false          :
          :  PC potential                    false          :
          :  electronic temp.          300.0000000     K    :
          :  accuracy                    0.2000000          :
          :  -> integral cutoff          0.3198970E+02      :
          :  -> integral neglect         0.2000000E-08      :
          :  -> SCF convergence          0.2000000E-06 Eh   :
          :  -> wf. convergence          0.2000000E-04 e    :
          :  Broyden damping             0.4000000          :
          ...................................................

 iter      E             dE          RMSdq      gap      omega  full diag
   1    -14.5344750 -0.145345E+02  0.382E-03    0.95       0.0  T
   2    -14.5344750 -0.117717E-09  0.237E-03    0.95      12.2  T
   3    -14.5344750  0.193214E-08  0.285E-04    0.95     101.4  T
   4    -14.5344750 -0.140715E-08  0.153E-04    0.95     188.6  T
   5    -14.5344750  0.144439E-08  0.206E-04    0.95     139.9  T
   6    -14.5344750 -0.960334E-09  0.152E-04    0.95     189.5  T

   *** convergence criteria satisfied after 6 iterations ***

         #    Occupation            Energy/Eh            Energy/eV
      -------------------------------------------------------------
         1        2.0000           -0.3950226             -10.7491
       ...           ...                  ...                  ...
        12        2.0000           -0.2876463              -7.8273
        13        2.0000           -0.2846974              -7.7470
        14        2.0000           -0.2824528              -7.6859
        15        2.0000           -0.2751204              -7.4864
        16        2.0000           -0.2751202              -7.4864
        17        2.0000           -0.2702133              -7.3529
        18        2.0000           -0.2702131              -7.3529 (HOMO)
        19                         -0.2354818              -6.4078 (LUMO)
        20                         -0.2354814              -6.4078
        21                         -0.2290637              -6.2331
        22                         -0.2290633              -6.2331
        23                         -0.1639691              -4.4618
       ...                                ...                  ...
        48                          1.2359430              33.6317
      -------------------------------------------------------------
                  HL-Gap            0.0347313 Eh            0.9451 eV
             Fermi-level           -0.2528452 Eh           -6.8803 eV

 SCC (total)                   0 d,  0 h,  0 min,  0.015 sec
 SCC setup                      ...        0 min,  0.000 sec (  1.040%)
 Dispersion                     ...        0 min,  0.000 sec (  0.592%)
 classical contributions        ...        0 min,  0.000 sec (  0.245%)
 integral evaluation            ...        0 min,  0.002 sec ( 16.435%)
 iterations                     ...        0 min,  0.007 sec ( 44.349%)
 molecular gradient             ...        0 min,  0.005 sec ( 34.819%)
 printout                       ...        0 min,  0.000 sec (  2.324%)

         :::::::::::::::::::::::::::::::::::::::::::::::::::::
         ::                     SUMMARY                     ::
         :::::::::::::::::::::::::::::::::::::::::::::::::::::
         :: total energy             -14.251420971981 Eh    ::
         :: gradient norm              0.000003181055 Eh/a0 ::
         :: HOMO-LUMO gap              0.945087047825 eV    ::
         ::.................................................::
         :: SCC energy               -14.534474954390 Eh    ::
         :: -> isotropic ES            0.093383110335 Eh    ::
         :: -> anisotropic ES          0.002373597721 Eh    ::
         :: -> anisotropic XC         -0.039942782486 Eh    ::
         :: -> dispersion             -0.012534933731 Eh    ::
         :: repulsion energy           0.282915990635 Eh    ::
         :: add. restraining           0.000000000000 Eh    ::
         :: total charge               0.000000000207 e     ::
         :::::::::::::::::::::::::::::::::::::::::::::::::::::


Property printout bound to 'properties.out'

           -------------------------------------------------
          | TOTAL ENERGY              -14.251420971981 Eh   |
          | GRADIENT NORM               0.000003181055 Eh/α |
          | HOMO-LUMO GAP               0.945087047825 eV   |
           -------------------------------------------------

------------------------------------------------------------------------
 * finished run on 2026/04/17 at 12:14:25.257     
------------------------------------------------------------------------
 total:
 * wall-time:     0 d,  0 h,  0 min,  0.028 sec
 *  cpu-time:     0 d,  0 h,  0 min,  0.028 sec
 * ratio c/w:     0.999 speedup
 SCF:
 * wall-time:     0 d,  0 h,  0 min,  0.015 sec
 *  cpu-time:     0 d,  0 h,  0 min,  0.015 sec
 * ratio c/w:     1.000 speedup


-------------------------   --------------------
FINAL SINGLE POINT ENERGY       -14.251420971980
-------------------------   --------------------


-------------
DIPOLE MOMENT
-------------
                                X             Y             Z
Total Dipole Moment    :     -0.00000      -0.00000       0.00000
                        -----------------------------------------
Magnitude (a.u.)       :      0.00000
Magnitude (Debye)      :      0.00000

                                *** OPTIMIZATION RUN DONE ***


--------------------------------
SUGGESTED CITATIONS FOR THIS RUN
--------------------------------

Below you find a list of papers that are relevant to this ORCA run
We neither can nor want to force you to cite these papers, but we appreciate if you do
You receive ORCA, which is the product of decades of hard work by many enthusiastic individuals, for free
The only thing we kindly ask in return is that you cite our papers,
We deeply appreciate it, if you show your appreciation for ORCA by not just citing the generic ORCA reference.

Please note that relegating all ORCA citations to the supporting information does *not* help us.
SI sections are not indexed - citations you put there will not count into any citation statistics
But we need these citations in order to attract the funding resources that allow us to do what we are doing

Therefore, if you are a happy ORCA user, please consider citing a few of the papers listed below in the main body of your paper

In addition to the list printed below, the program has created the file ring12_d1.50_m1.bibtex that contains the list in bibtex format
You can import this file easily into all common literature databanks and citation aid programs

It goes without saying that in many instances, there are alternative algorithms to achieve similar
results as the ones you have gotten from ORCA. It is, of course, also the case that in some instances
ORCA just re-implements algorithms worked out by others. We are fully aware of that and we are also
fully appreciative of our colleagues work. Hence this citation list should not be read as indicating
that the listed papers, which are focused on our own work, are the only ones worth citing. It simply
meant to make it easier for users to cite ORCA specific papers. It is not a substitute for doing your
own literature research and citing the relevant literature in a scientifically appropriate manner.

List of essential papers. We consider these as the minimum necessary citations

  1. Bannwarth, C.; Ehlert, S.; Grimme, S.
     GFN2-xTB—An Accurate and Broadly Parametrized Self-Consistent Tight-Binding Quantum Chemical Method with Multipole Electrostatics and Density-Dependent Dispersion Contributions
     J. Chem. Theory Comput. 2019 15(3), 1652-1671
     doi.org/10.1021/acs.jctc.8b01176
  2. Neese, F.
     Software update: the ORCA program system, version 6.0
     WIRES Comput. Molec. Sci. 2025 15(1), e70019
     doi.org/10.1002/wcms.70019

List of papers to cite with high priority. The work reported in these papers was absolutely
necessary for this run to complete.
Our perspective: the developers of density functionals and basis sets usually get cited in chemistry papers
Good! But without the algorithms to do something with them, the functionals or basis sets would not do anything.
Hence, in our opinion, the algorithm design and method developments papers are equally worthy of getting cited

  1. Bannwarth, C.; Caldeweyher, E.; Ehlert, S.; Hansen, A.; Pracht, P.; Seibert, J.; Spicher, S.; Grimme, S.
     Extended tight-binding quantum chemistry methods
     WIRES Comput. Molec. Sci. 2020 11(2), e1493
     doi.org/10.1002/wcms.1493

List of suggested additional citations. These are papers that are important in the 'surrounding' of 
of this run, or papers that preceded the highly important papers. If you like your results we are grateful for a citation.

  1. Neese, F.
     The ORCA program system
     WIRES Comput. Molec. Sci. 2012 2(1), 73-78
     doi.org/10.1002/wcms.81
  2. Neese, F.
     Software update: the ORCA program system, version 4.0
     WIRES Comput. Molec. Sci. 2018 8(1), 1-6
     doi.org/10.1002/wcms.1327
  3. Neese, F.; Wennmohs, F.; Becker, U.; Riplinger, C.
     The ORCA quantum chemistry program package
     J. Chem. Phys. 2020 152(22), 224108
     doi.org/10.1063/5.0004608
  4. Neese, F.
     Software update: The ORCA program system—Version 5.0
     WIRES Comput. Molec. Sci. 2022 12(1), e1606
     doi.org/10.1002/wcms.1606

List of optional additional citations

  1. Neese, F.
     Approximate second-order SCF convergence for spin unrestricted wavefunctions
     Chem. Phys. Lett. 2000 325(1-3), 93-98
     doi.org/10.1016/s0009-2614(00)00662-x

Timings for individual modules:

Sum of individual times          ...        0.171 sec (=   0.003 min)
Geometry relaxation              ...        0.012 sec (=   0.000 min)   7.2 %
XTB module                       ...        0.159 sec (=   0.003 min)  92.8 %
                             ****ORCA TERMINATED NORMALLY****
TOTAL RUN TIME: 0 days 0 hours 0 minutes 0 seconds 309 msec
