
                                 *****************
                                 * O   R   C   A *
                                 *****************

                                            #,                                       
                                            ###                                      
                                            ####                                     
                                            #####                                    
                                            ######                                   
                                           ########,                                 
                                     ,,################,,,,,                         
                               ,,#################################,,                 
                          ,,##########################################,,             
                       ,#########################################, ''#####,          
                    ,#############################################,,   '####,        
                  ,##################################################,,,,####,       
                ,###########''''           ''''###############################       
              ,#####''   ,,,,##########,,,,          '''####'''          '####       
            ,##' ,,,,###########################,,,                        '##       
           ' ,,###''''                  '''############,,,                           
         ,,##''                                '''############,,,,        ,,,,,,###''
      ,#''                                            '''#######################'''  
     '                                                          ''''####''''         
             ,#######,   #######,   ,#######,      ##                                
            ,#'     '#,  ##    ##  ,#'     '#,    #''#        ,####,    ,#,          
            ##       ##  ##   ,#'  ##            #'  '#       #'       ,# #          
            ##       ##  #######   ##           ,######,      #####,      #          
            '#,     ,#'  ##    ##  '#,     ,#' ,#      #,     #,   #      #          
             '#######'   ##     ##  '#######'  #'      '#     '####' #    #          



                #########################################################
                #                        -***-                          #
                #          Department of theory and spectroscopy        #
                #                                                       #
                #                      Frank Neese                      #
                #                                                       #
                #     Directorship, Architecture, Infrastructure        #
                #                    SHARK, DRIVERS                     #
                #        Core code/Algorithms in most modules           #
                #                                                       #
                #        Max Planck Institute fuer Kohlenforschung      #
                #                Kaiser Wilhelm Platz 1                 #
                #                 D-45470 Muelheim/Ruhr                 #
                #                      Germany                          #
                #                                                       #
                #                  All rights reserved                  #
                #                        -***-                          #
                #########################################################


                         Program Version 6.1.1  -  RELEASE   -
                                (GIT: $487d211c$)
                          ($2025-11-21 10:33:24 +0100$)
                                                                         
                                  - NO-DMRG VERSION -                    
                                                                         


 With contributions from (in alphabetic order):
[Max-Planck-Institut fuer Kohlenforschung]                               
  Daniel Aravena         : Magnetic Suceptibility                        
  Michael Atanasov       : Ab Initio Ligand Field Theory (pilot matlab implementation)
  Alexander A. Auer      : GIAO ZORA, VPT2 properties, NMR spectrum      
  Ute Becker             : All parallelization in ORCA, NUMFREQ, NUMCALC 
  Giovanni Bistoni       : ED, misc. LED, open-shell LED, HFLD           
  Dmytro Bykov           : pre 5.0 version of the SCF Hessian            
  Marcos Casanova-Páez   : Triplet and SCS-CIS(D). UHF-(DLPNO)-IP/EA/STEOM-CCSD. UHF-CVS-IP/STEOM-CCSD   
  Vijay G. Chilkuri      : MRCI spin determinant printing, contributions to CSF-ICE 
  Pauline Colinet        : FMM embedding                                 
  Dipayan Datta          : RHF DLPNO-CCSD density                        
  Achintya Kumar Dutta   : EOM-CC, STEOM-CC                              
  Nicolas Foglia         : Exact transition moments, OPA infrastructure, MCD improvements    
  Dmitry Ganyushin       : Spin-Orbit,Spin-Spin,Magnetic field MRCI      
  Miquel Garcia-Rates    : C-PCM and meta-GGA Hessian, CCSD/C-PCM, Gaussian charge scheme 
  Tiago L. C. Gouveia    : GS-ROHF, GS-ROCIS                             
  Yang Guo               : DLPNO-NEVPT2, F12-NEVPT2, CIM, IAO-localization        
  Andreas Hansen         : Spin unrestricted coupled pair/coupled cluster methods 
  Ingolf Harden          : AUTO-CI MPn and infrastructure                
  Benjamin Helmich-Paris : MC-RPA, TRAH-(SCF,CASSCF), AVAS, COSX integrals, SCF dyn. polar., MC-PDFT, srDFT 
  Lee Huntington         : MR-EOM, pCC                                   
  Robert Izsak           : Overlap fitted RIJCOSX, COSX-SCS-MP3, EOM     
  Riya Kayal             : Wick's Theorem for AUTO-CI, AUTO-CI UHF-CCSDT 
  Emily Kempfer          : AUTO-CI RHF CISDT and CCSDT, approximate NEVPT4
  Christian Kollmar      : KDIIS, OOCD, Brueckner-CCSD(T), CCSD density, CASPT2, CASPT2-K, improved NEVPT2 
  Axel Koslowski         : Symmetry handling                             
  Simone Kossmann        : meta-GGA functionals, TD-DFT gradient, OOMP2, (MP2 Hessian; deprecated post 5.0) 
  Lucas Lang             : DCDCAS, Hyperfine gauge corrections, ICE-SOC+SSC
  Marvin Lechner         : AUTO-CI (C++ implementation), FIC-MRCC        
  Spencer Leger          : CASSCF response                               
  Dagmar Lenk            : GEPOL surface, SMD, ORCA-2-JSON               
  Dimitrios Liakos       : Extrapolation schemes; Compound Job, Property file
  Dimitrios Manganas     : Further ROCIS development; embedding schemes. LFT, Crystal Embedding 
  Dimitrios Pantazis     : SARC Basis sets                               
  Anastasios Papadopoulos: AUTO-CI, single reference methods and gradients 
  Taras Petrenko         : pre 6.0 DFT Hessian and TD-DFT gradient,  ECA, NRVS 
  Petra Pikulova         : Analytic Raman intensities                    
  Peter Pinski           : DLPNO-MP2, DLPNO-MP2 Gradient                 
  Shashank Vittal Rao    : ES-AILFT, MagRelax                            
  Christoph Reimann      : Effective Core Potentials                     
  Marius Retegan         : Local ZFS, SOC                                
  Christoph Riplinger    : Optimizer, TS searches, QM/MM, DLPNO-CCSD(T), (RO)-DLPNO pert. Triples 
  Michael Roemelt        : Original ROCIS implementation, recursive CI coupling coefficients
  Masaaki Saitow         : Open-shell DLPNO-CCSD energy and density      
  Barbara Sandhoefer     : DKH picture change effects                    
  Yorick L. A. Schmerwitz: GMF and freeze-and-release deltaSCF, NEB S-IDPP initial path                    
  Kantharuban Sivalingam : CASSCF convergence/infrastructure, NEVPT2, NEVPT3, NEVPT4(SD), FIC-MRCI and CEPA variants
  Bernardo de Souza      : ESD, SOC TD-DFT                               
  Georgi L. Stoychev     : AutoAux, RI-MP2 NMR, DLPNO-MP2 response, X2C  
  Van Anh Tran           : RI-MP2 g-tensors                              
  Willem Van den Heuvel  : Paramagnetic NMR                              
  Zikuan Wang            : NOTCH, Electric field optimization            
  Frank Wennmohs         : Technical directorship and infrastructure     
  Hang Xu                : AUTO-CI-Response properties                   
                                                                         
[FACCTs GmbH]                                                            
  Markus Bursch, Nicolas Foglia, Miquel Garcia-Rates, Ingolf Harden, Hagen Neugebauer, Anastasios Papadopoulos, 
  Christoph Riplinger, Bernardo de Souza, Georgi L. Stoychev                                                    
                                                                 
  APM, various basis sets, CI-OPT, improved COSX, DLPNO-Multilevel,           
  DOCKER, DRACO, updates on ESD, Fragmentator, GOAT, IRC, LR-CPCM, L-BFGS, MBIS, meta-GGA TD-DFT gradient, ML-optimized integration grids, 
  MM, NACMEs, nearIR, NEB, NEB-TS, NL-DFT gradient (VV10), 2- and 3-layer-ONIOM, interface openCOSMO-RS, QMMM,   
  Crystal-QMMM, RESP, rigid body optimization, SF, symmetry and pop. for TD-DFT, various functionals, SOLVATOR                                   
                                                                         
[Other institutions]                                                     
  V. Asgeirsson          : NEB                                           
  Christoph Bannwarth    : sTDA-DFT, sTD-DFT, PBEh-3c, B97-3c, D3        
  Giovanni Bistoni       : ETS/NOCV, ADLD/ADEX, COVALED                  
  Martin Brehm           : Molecular dynamics                            
  Ronald Cardenas        : ETS/NOCV                                      
  Martina Colucci        : COVALED                                       
  Sebastian Ehlert       : rSCAN, r2SCAN, r2SCAN-3c, D4, dhf basis sets  
  Marvin Friede          : D4 for Fr, Ra, Ac-Lr                          
  Lars Goerigk           : TD-DFT with DH, B97 family of functionals     
  Stefan Grimme          : VdW corrections, initial TS optimization, DFT functionals, gCP, sTDA/sTD-DF 
  Waldemar Hujo          : DFT-NL                                        
  H. Jonsson             : NEB                                           
  Holger Kruse           : gCP                                           
  Marcel Mueller         : wB97X-3c, vDZP basis set                      
  Hagen Neugebauer       : wr2SCAN, Native XTB                           
  Gianluca Regni         : ADLD/ADEX                                     
  Tobias Risthaus        : pre 6.0 range-separated hybrid DFT and stability analysis
  Lukas Wittmann         : regularized MP2, r2SCAN double-hybrids, wr2SCAN        
                                                                         
We gratefully acknowledge several colleagues who have allowed us to      
interface, adapt or use parts of their codes:                            
  Ed Valeev, F. Pavosevic, A. Kumar             : LibInt (2-el integral package), F12 methods 
  Garnet Chan, S. Sharma, J. Yang, R. Olivares  : DMRG                   
  Ulf Ekstrom                                   : XCFun DFT Library      
  Mihaly Kallay                                 : mrcc  (arbitrary order and MRCC methods)
  Frank Weinhold                                : gennbo (NPA and NBO analysis)           
  Simon Mueller                                 : openCOSMO-RS                            
  Christopher J. Cramer and Donald G. Truhlar   : smd solvation model                     
  S Lehtola, MJT Oliveira, MAL Marques          : LibXC Library                           
  Liviu Ungur et al                             : ANISO software                          


 Your calculation uses the libint2 library for the computation of 2-el integrals
 For citations please refer to: http://libint.valeyev.net

 Your ORCA version has been built with support for libXC version: 7.0.0
 For citations please refer to: https://libxc.gitlab.io

 This ORCA versions uses:
   CBLAS   interface :  Fast vector & matrix operations
   LAPACKE interface :  Fast linear algebra routines
   SCALAPACK package :  Parallel linear algebra routines
   Shared memory     :  Shared parallel matrices
   BLAS/LAPACK       :  OpenBLAS 0.3.29  USE64BITINT DYNAMIC_ARCH NO_AFFINITY Zen SINGLE_THREADED
        Core in use  :  Zen
   Copyright (c) 2011-2014, The OpenBLAS Project


  ***********************************
  * Starting time: Fri Apr 17 12:14:27 2026
  * Host name:     vmi3233575
  * Process ID:    335292
  * Working dir.:  /root/orca_b12_vps_pack/jobs/01_xtb/mult_1
  ***********************************

NOTE: MaxCore=500 MB was set to SCF,MP2,MDCI,CIPSI,MRCI,RASCI and CIS
      => If you want to overwrite this, your respective input block should be placed after the MaxCore statement


***************************************
The coordinates will be read from file: ../../../starts/ring12_d2.10.xyz
***************************************


Your calculation utilizes the semiempirical GFN2-xTB method
Please cite in your paper:
Bannwarth, C.; Ehlert S.; Grimme, S. J. Chem. Theory Comput. 2019, 15, 1652.
   

================================================================================

================================================================================
                                        WARNINGS
                       Please study these warnings very carefully!
================================================================================


WARNING: Geometry Optimization
  ===> : Switching off AutoStart
         For restart on a previous wavefunction, please use MOREAD

WARNING: Found dipole moment calculation with XTB calculation
  ===> : Switching off dipole moment calculation

Environment variable XTBEXE for xtb has been set!

================================================================================
                                       INPUT FILE
================================================================================
NAME = ring12_d2.10_m1.inp
|  1> ! GFN2-xTB TightSCF TightOpt
|  2> 
|  3> %pal
|  4>   nprocs 1
|  5> end
|  6> 
|  7> %maxcore 500
|  8> 
|  9> * xyzfile 0 1 ../../../starts/ring12_d2.10.xyz
| 10> 
| 11>                          ****END OF INPUT****
================================================================================

                       *****************************
                       * Geometry Optimization Run *
                       *****************************

Geometry optimization settings:
Update method            Update   .... BFGS
Choice of coordinates    CoordSys .... (2022) Redundant Internals
Initial Hessian          InHess   .... Almloef's Model
Max. no of cycles        MaxIter  .... 50

Convergence Tolerances:
Energy Change            TolE     ....  1.0000e-06 Eh
Max. Gradient            TolMAXG  ....  1.0000e-04 Eh/bohr
RMS Gradient             TolRMSG  ....  3.0000e-05 Eh/bohr
Max. Displacement        TolMAXD  ....  1.0000e-03 bohr
RMS Displacement         TolRMSD  ....  6.0000e-04 bohr
Strict Convergence                .... False

------------------------------------------------------------------------------
                        ORCA OPTIMIZATION COORDINATE SETUP
------------------------------------------------------------------------------

The optimization will be done in redundant internal coordinates (2022)
Making redundant internal coordinates   ...  (2022 redundants) done
Evaluating the initial hessian          ...  (Almloef) done
Evaluating the coordinates              ...  done
Calculating the B-matrix                .... done
Calculating the G-matrix                .... done
The number of degrees of freedom        ....   36

    -----------------------------------------------------------------
                    Redundant Internal Coordinates


    -----------------------------------------------------------------
         Definition                    Initial Value    Approx d2E/dq
    -----------------------------------------------------------------
      1. B(B   1,B   0)                  2.1000         0.061747   
      2. B(B   2,B   1)                  2.1000         0.061747   
      3. B(B   3,B   2)                  2.1000         0.061747   
      4. B(B   4,B   3)                  2.1000         0.061747   
      5. B(B   5,B   4)                  2.1000         0.061747   
      6. B(B   6,B   5)                  2.1000         0.061747   
      7. B(B   7,B   6)                  2.1000         0.061747   
      8. B(B   8,B   7)                  2.1000         0.061747   
      9. B(B   9,B   8)                  2.1000         0.061747   
     10. B(B  10,B   9)                  2.1000         0.061747   
     11. B(B  11,B  10)                  2.1000         0.061747   
     12. B(B  11,B   0)                  2.1000         0.061747   
     13. A(B   1,B   0,B  11)          150.0000         0.215735   
     14. A(B   0,B   1,B   2)          150.0000         0.215735   
     15. A(B   1,B   2,B   3)          150.0000         0.215735   
     16. A(B   2,B   3,B   4)          150.0000         0.215735   
     17. A(B   3,B   4,B   5)          150.0000         0.215735   
     18. A(B   4,B   5,B   6)          150.0000         0.215735   
     19. A(B   5,B   6,B   7)          150.0000         0.215735   
     20. A(B   6,B   7,B   8)          150.0000         0.215735   
     21. A(B   7,B   8,B   9)          150.0000         0.215735   
     22. A(B   8,B   9,B  10)          150.0000         0.215735   
     23. A(B   9,B  10,B  11)          150.0000         0.215735   
     24. A(B   0,B  11,B  10)          150.0000         0.215735   
     25. D(B   2,B   1,B   0,B  11)      0.0000         0.010000   
     26. D(B   3,B   2,B   1,B   0)      0.0000         0.010000   
     27. D(B   4,B   3,B   2,B   1)      0.0000         0.010000   
     28. D(B   5,B   4,B   3,B   2)      0.0000         0.010000   
     29. D(B   6,B   5,B   4,B   3)      0.0000         0.010000   
     30. D(B   7,B   6,B   5,B   4)      0.0000         0.010000   
     31. D(B   8,B   7,B   6,B   5)      0.0000         0.010000   
     32. D(B   9,B   8,B   7,B   6)      0.0000         0.010000   
     33. D(B  10,B   9,B   8,B   7)      0.0000         0.010000   
     34. D(B  11,B  10,B   9,B   8)      0.0000         0.010000   
     35. D(B   0,B  11,B  10,B   9)      0.0000         0.010000   
     36. D(B  10,B  11,B   0,B   1)      0.0000         0.010000   
    -----------------------------------------------------------------

Number of atoms                         .... 12
Number of degrees of freedom            .... 36


         *************************************************************
         *                GEOMETRY OPTIMIZATION CYCLE   1            *
         *************************************************************
---------------------------------
CARTESIAN COORDINATES (ANGSTROEM)
---------------------------------
  B     4.056888   -0.000000    0.000000
  B     3.513368    2.028444    0.000000
  B     2.028444    3.513368    0.000000
  B     0.000000    4.056888    0.000000
  B    -2.028444    3.513368    0.000000
  B    -3.513368    2.028444    0.000000
  B    -4.056888    0.000000    0.000000
  B    -3.513368   -2.028444    0.000000
  B    -2.028444   -3.513368    0.000000
  B    -0.000000   -4.056888    0.000000
  B     2.028444   -3.513368    0.000000
  B     3.513368   -2.028444    0.000000

----------------------------
CARTESIAN COORDINATES (A.U.)
----------------------------
  NO LB    ZA    FRAG    MASS        X           Y           Z
   0 B   5.0000    0    10.810    7.666408   -0.000000    0.000000
   1 B   5.0000    0    10.810    6.639304    3.833204    0.000000
   2 B   5.0000    0    10.810    3.833204    6.639304    0.000000
   3 B   5.0000    0    10.810    0.000000    7.666408    0.000000
   4 B   5.0000    0    10.810   -3.833204    6.639304    0.000000
   5 B   5.0000    0    10.810   -6.639304    3.833204    0.000000
   6 B   5.0000    0    10.810   -7.666408    0.000000    0.000000
   7 B   5.0000    0    10.810   -6.639304   -3.833204    0.000000
   8 B   5.0000    0    10.810   -3.833204   -6.639304    0.000000
   9 B   5.0000    0    10.810   -0.000000   -7.666408    0.000000
  10 B   5.0000    0    10.810    3.833204   -6.639304    0.000000
  11 B   5.0000    0    10.810    6.639304   -3.833204    0.000000

      -----------------------------------------------------------      
     |                   =====================                   |     
     |                           x T B                           |     
     |                   =====================                   |     
     |                         S. Grimme                         |     
     |          Mulliken Center for Theoretical Chemistry        |     
     |                    University of Bonn                     |     
      -----------------------------------------------------------      

   * xtb version 6.6.1 (unknown) compiled by 'builduser@buildhost' on 2023-08-07

   xtb is free software: you can redistribute it and/or modify it under
   the terms of the GNU Lesser General Public License as published by
   the Free Software Foundation, either version 3 of the License, or
   (at your option) any later version.
   
   xtb is distributed in the hope that it will be useful,
   but WITHOUT ANY WARRANTY; without even the implied warranty of
   MERCHANTABILITY or FITNESS FOR A PARTICULAR PURPOSE.  See the
   GNU Lesser General Public License for more details.
   
   Cite this work as:
   * C. Bannwarth, E. Caldeweyher, S. Ehlert, A. Hansen, P. Pracht,
     J. Seibert, S. Spicher, S. Grimme, WIREs Comput. Mol. Sci., 2020, 11,
     e01493. DOI: 10.1002/wcms.1493
   
   for GFN2-xTB:
   * C. Bannwarth, S. Ehlert and S. Grimme., J. Chem. Theory Comput., 2019,
     15, 1652-1671. DOI: 10.1021/acs.jctc.8b01176
   for GFN1-xTB:
   * S. Grimme, C. Bannwarth, P. Shushkov, J. Chem. Theory Comput., 2017,
     13, 1989-2009. DOI: 10.1021/acs.jctc.7b00118
   for GFN0-xTB:
   * P. Pracht, E. Caldeweyher, S. Ehlert, S. Grimme, ChemRxiv, 2019, preprint.
     DOI: 10.26434/chemrxiv.8326202.v1
   for GFN-FF:
   * S. Spicher and S. Grimme, Angew. Chem. Int. Ed., 2020, 59, 15665-15673.
     DOI: 10.1002/anie.202004239
   
   for ALPB and GBSA implicit solvation:
   * S. Ehlert, M. Stahn, S. Spicher, S. Grimme, J. Chem. Theory Comput.,
     2021, 17, 4250-4261. DOI: 10.1021/acs.jctc.1c00471
   
   for DFT-D4:
   * E. Caldeweyher, C. Bannwarth and S. Grimme, J. Chem. Phys., 2017,
     147, 034112. DOI: 10.1063/1.4993215
   * E. Caldeweyher, S. Ehlert, A. Hansen, H. Neugebauer, S. Spicher,
     C. Bannwarth and S. Grimme, J. Chem. Phys., 2019, 150, 154122.
     DOI: 10.1063/1.5090222
   * E. Caldeweyher, J.-M. Mewes, S. Ehlert and S. Grimme, Phys. Chem. Chem. Phys.
     2020, 22, 8499-8512. DOI: 10.1039/D0CP00502A
   
   for sTDA-xTB:
   * S. Grimme and C. Bannwarth, J. Chem. Phys., 2016, 145, 054103.
     DOI: 10.1063/1.4959605
   
   in the mass-spec context:
   * V. Asgeirsson, C. Bauer and S. Grimme, Chem. Sci., 2017, 8, 4879.
     DOI: 10.1039/c7sc00601b
   * J. Koopman and S. Grimme, ACS Omega 2019, 4, 12, 15120-15133.
     DOI: 10.1021/acsomega.9b02011
   
   for metadynamics refer to:
   * S. Grimme, J. Chem. Theory Comput., 2019, 155, 2847-2862
     DOI: 10.1021/acs.jctc.9b00143
   
   for SPH calculations refer to:
   * S. Spicher and S. Grimme, J. Chem. Theory Comput., 2021, 17, 1701-1714
     DOI: 10.1021/acs.jctc.0c01306
   
   with help from (in alphabetical order)
   P. Atkinson, C. Bannwarth, F. Bohle, G. Brandenburg, E. Caldeweyher
   M. Checinski, S. Dohm, S. Ehlert, S. Ehrlich, I. Gerasimov, C. Hölzer
   A. Katbashev, J. Koopman, C. Lavigne, S. Lehtola, F. März, M. Müller,
   F. Musil, H. Neugebauer, J. Pisarek, C. Plett, P. Pracht, F. Pultar,
   J. Seibert, P. Shushkov, S. Spicher, M. Stahn, M. Steiner, T. Strunk,
   J. Stückrath, T. Rose, and J. Unsleber
   
 * started run on 2026/04/17 at 12:14:27.203     

           -------------------------------------------------
          |                Calculation Setup                |
           -------------------------------------------------

          program call               : /usr/bin/xtb ring12_d2.10_m1_XTB.xyz --grad -c 0 -u 0 -P 1 --namespace ring12_d2.10_m1 --input ring12_d2.10_m1_XTB.input.tmp --acc 0.200000
          calculation namespace      : ring12_d2.10_m1
          coordinate file            : ring12_d2.10_m1_XTB.xyz
          omp threads                :                     1

   ID    Z sym.   atoms
    1    5 B      1-12

molecular fragmentation (1/2 indicates fragments):
112222222222
# atoms in fragment 1/2:     2    10
 fragment masses (1/2) :       21.62      108.11
CMA distance (Bohr)    :   8.886
constraining FC (au)   :  0.0500

           -------------------------------------------------
          |                 G F N 2 - x T B                 |
           -------------------------------------------------

        Reference                      10.1021/acs.jctc.8b01176
      * Hamiltonian:
        H0-scaling (s, p, d)           1.850000    2.230000    2.230000
        zeta-weighting                 0.500000
      * Dispersion:
        s8                             2.700000
        a1                             0.520000
        a2                             5.000000
        s9                             5.000000
      * Repulsion:
        kExp                           1.500000    1.000000
        rExp                           1.000000
      * Coulomb:
        alpha                          2.000000
        third order                    shell-resolved
        anisotropic                    true
        a3                             3.000000
        a5                             4.000000
        cn-shift                       1.200000
        cn-exp                         4.000000
        max-rad                        5.000000


          ...................................................
          :                      SETUP                      :
          :.................................................:
          :  # basis functions                  48          :
          :  # atomic orbitals                  48          :
          :  # shells                           24          :
          :  # electrons                        36          :
          :  max. iterations                   250          :
          :  Hamiltonian                  GFN2-xTB          :
          :  restarted?                      false          :
          :  GBSA solvation                  false          :
          :  PC potential                    false          :
          :  electronic temp.          300.0000000     K    :
          :  accuracy                    0.2000000          :
          :  -> integral cutoff          0.3198970E+02      :
          :  -> integral neglect         0.2000000E-08      :
          :  -> SCF convergence          0.2000000E-06 Eh   :
          :  -> wf. convergence          0.2000000E-04 e    :
          :  Broyden damping             0.4000000          :
          ...................................................

 iter      E             dE          RMSdq      gap      omega  full diag
   1    -13.1898800 -0.131899E+02  0.331E+01    0.43       0.0  T
   2    -13.1900606 -0.180679E-03  0.199E+01    0.45       1.0  T
   3    -13.1955649 -0.550426E-02  0.152E+00    0.49       1.0  T
   4    -13.1956999 -0.135052E-03  0.368E-01    0.49       1.0  T
   5    -13.1957146 -0.146702E-04  0.159E-01    0.49       1.0  T
   6    -13.1957156 -0.100222E-05  0.125E-02    0.49       2.3  T
   7    -13.1957154  0.192112E-06  0.728E-03    0.49       4.0  T
   8    -13.1957156 -0.214925E-06  0.310E-03    0.49       9.3  T
   9    -13.1957156 -0.378788E-08  0.136E-04    0.49     211.8  T
  10    -13.1957156  0.103625E-08  0.178E-04    0.49     162.1  T

   *** convergence criteria satisfied after 10 iterations ***

         #    Occupation            Energy/Eh            Energy/eV
      -------------------------------------------------------------
         1        2.0000           -0.3577478              -9.7348
       ...           ...                  ...                  ...
        12        2.0000           -0.2983336              -8.1181
        13        2.0000           -0.2409026              -6.5553
        14        2.0000           -0.2403480              -6.5402
        15        1.9999           -0.2346234              -6.3844
        16        1.9999           -0.2346234              -6.3844
        17        1.9998           -0.2343432              -6.3768
        18        1.9998           -0.2343431              -6.3768 (HOMO)
        19        0.0002           -0.2164683              -5.8904 (LUMO)
        20        0.0002           -0.2164683              -5.8904
        21        0.0001           -0.2162069              -5.8833
        22        0.0001           -0.2162069              -5.8833
        23                         -0.1895047              -5.1567
       ...                                ...                  ...
        48                          0.1411753               3.8416
      -------------------------------------------------------------
                  HL-Gap            0.0178748 Eh            0.4864 eV
             Fermi-level           -0.2254094 Eh           -6.1337 eV

 SCC (total)                   0 d,  0 h,  0 min,  0.021 sec
 SCC setup                      ...        0 min,  0.000 sec (  0.816%)
 Dispersion                     ...        0 min,  0.000 sec (  0.465%)
 classical contributions        ...        0 min,  0.000 sec (  0.164%)
 integral evaluation            ...        0 min,  0.003 sec ( 13.522%)
 iterations                     ...        0 min,  0.012 sec ( 57.054%)
 molecular gradient             ...        0 min,  0.006 sec ( 26.196%)
 printout                       ...        0 min,  0.000 sec (  1.674%)

         :::::::::::::::::::::::::::::::::::::::::::::::::::::
         ::                     SUMMARY                     ::
         :::::::::::::::::::::::::::::::::::::::::::::::::::::
         :: total energy             -13.192572716187 Eh    ::
         :: gradient norm              0.177447041448 Eh/a0 ::
         :: HOMO-LUMO gap              0.486398614815 eV    ::
         ::.................................................::
         :: SCC energy               -13.195715641359 Eh    ::
         :: -> isotropic ES            0.082834728294 Eh    ::
         :: -> anisotropic ES          0.005072066232 Eh    ::
         :: -> anisotropic XC         -0.079711926350 Eh    ::
         :: -> dispersion             -0.011619225653 Eh    ::
         :: repulsion energy           0.003002319160 Eh    ::
         :: add. restraining           0.000000000000 Eh    ::
         :: total charge              -0.000000000017 e     ::
         :::::::::::::::::::::::::::::::::::::::::::::::::::::


Property printout bound to 'properties.out'

           -------------------------------------------------
          | TOTAL ENERGY              -13.192572716187 Eh   |
          | GRADIENT NORM               0.177447041448 Eh/α |
          | HOMO-LUMO GAP               0.486398614815 eV   |
           -------------------------------------------------

------------------------------------------------------------------------
 * finished run on 2026/04/17 at 12:14:27.237     
------------------------------------------------------------------------
 total:
 * wall-time:     0 d,  0 h,  0 min,  0.034 sec
 *  cpu-time:     0 d,  0 h,  0 min,  0.034 sec
 * ratio c/w:     0.998 speedup
 SCF:
 * wall-time:     0 d,  0 h,  0 min,  0.021 sec
 *  cpu-time:     0 d,  0 h,  0 min,  0.021 sec
 * ratio c/w:     1.000 speedup


-------------------------   --------------------
FINAL SINGLE POINT ENERGY       -13.192572716190
-------------------------   --------------------


-------------
DIPOLE MOMENT
-------------
                                X             Y             Z
Total Dipole Moment    :     -0.00000      -0.00000       0.00000
                        -----------------------------------------
Magnitude (a.u.)       :      0.00000
Magnitude (Debye)      :      0.00000


------------------
CARTESIAN GRADIENT
------------------

   1   B   :    0.051224667   -0.000000279   -0.000000000
   2   B   :    0.044362015    0.025612283    0.000000000
   3   B   :    0.025612390    0.044361988   -0.000000000
   4   B   :   -0.000000046    0.051224789   -0.000000000
   5   B   :   -0.025612495    0.044361848    0.000000000
   6   B   :   -0.044361976    0.025612014   -0.000000000
   7   B   :   -0.051224424   -0.000000351    0.000000000
   8   B   :   -0.044361468   -0.025612269    0.000000000
   9   B   :   -0.025612180   -0.044361490    0.000000000
  10   B   :   -0.000000117   -0.051224313   -0.000000000
  11   B   :    0.025612042   -0.044361716   -0.000000000
  12   B   :    0.044361592   -0.025612504    0.000000000

Difference to translation invariance:
           :   -0.0000000000    0.0000000000    0.0000000000

Difference to rotation invariance:
           :   -0.0000000000   -0.0000000000    0.0000000000

Norm of the Cartesian gradient     ...    0.1774470414
RMS gradient                       ...    0.0295745069
MAX gradient                       ...    0.0512247887
------------------------------------------------------------------------------
                         ORCA GEOMETRY RELAXATION STEP
------------------------------------------------------------------------------

Reading the OPT-File                    .... done
Getting information on internals        .... done
Copying old internal coords+grads       .... done
Making the new internal coordinates     .... (2022 redundants) done
Validating the new internal coordinates .... (2022 redundants) done
Calculating the B-matrix                .... done
Calculating the G,G- and P matrices     .... done
Transforming gradient to internals      .... done
Projecting the internal gradient        .... done
Number of atoms                         ....  12
Number of internal coordinates          ....  36
Current Energy                          ....   -13.192572716 Eh
Current gradient norm                   ....     0.177447041 Eh/bohr
Maximum allowed component of the step   ....  0.300
Current trust radius                    ....  0.300
Evaluating the initial hessian          ....  (Almloef) done
Projecting the Hessian                  .... done
Forming the augmented Hessian           .... done
Diagonalizing the augmented Hessian     .... done
Last element of RFO vector              ....  0.738139173
Lowest eigenvalues of augmented Hessian:
 -0.313315459  0.010000000  0.010000000  0.010000000  0.010000000
Length of the computed step             ....  0.913985462
Warning: the length of the step is outside the trust region - taking restricted step instead
The input lambda is                     ....     0.009000
   iter:   5  x=   -0.326268  g=   12.869796 f(x)=     1.604557
   iter:  10  x=   -1.079571  g=    0.171658 f(x)=     0.005306
The output lambda is                    ....    -1.080925 (14 iterations)
The final length of the internal step   ....  0.300000000
Converting the step to Cartesian space:
 Initial RMS(Int)=    0.0500000000
Transforming coordinates:
 Iter   0:  RMS(Cart)=    0.0965925826 RMS(Int)=    0.0500000000
done
Storing new coordinates                 .... done

                                .--------------------.
          ----------------------|Geometry convergence|-------------------------
          Item                value                   Tolerance       Converged
          ---------------------------------------------------------------------
          RMS gradient        0.0571335600            0.0000300000      NO
          MAX gradient        0.0989587192            0.0001000000      NO
          RMS step            0.0500000000            0.0006000000      NO
          MAX step            0.0866029685            0.0010000000      NO
          -------------------------------------------------------------------------
          ........................................................
          Max(Bonds)      0.0458      Max(Angles)    0.00
          Max(Dihed)        0.00      Max(Improp)    0.00
          ---------------------------------------------------------------------

The optimization has not yet converged - more geometry cycles are needed


    ---------------------------------------------------------------------------
                         Redundant Internal Coordinates
                            (Angstroem and degrees)

        Definition                    Value    dE/dq     Step     New-Value
    ----------------------------------------------------------------------------
     1. B(B   1,B   0)                2.1000  0.098959 -0.0458    2.0542   
     2. B(B   2,B   1)                2.1000  0.098959 -0.0458    2.0542   
     3. B(B   3,B   2)                2.1000  0.098959 -0.0458    2.0542   
     4. B(B   4,B   3)                2.1000  0.098959 -0.0458    2.0542   
     5. B(B   5,B   4)                2.1000  0.098959 -0.0458    2.0542   
     6. B(B   6,B   5)                2.1000  0.098958 -0.0458    2.0542   
     7. B(B   7,B   6)                2.1000  0.098958 -0.0458    2.0542   
     8. B(B   8,B   7)                2.1000  0.098958 -0.0458    2.0542   
     9. B(B   9,B   8)                2.1000  0.098958 -0.0458    2.0542   
    10. B(B  10,B   9)                2.1000  0.098958 -0.0458    2.0542   
    11. B(B  11,B  10)                2.1000  0.098958 -0.0458    2.0542   
    12. B(B  11,B   0)                2.1000  0.098958 -0.0458    2.0542   
    13. A(B   1,B   0,B  11)          150.00 -0.000000    0.00    150.00   
    14. A(B   0,B   1,B   2)          150.00 -0.000000    0.00    150.00   
    15. A(B   1,B   2,B   3)          150.00 -0.000000    0.00    150.00   
    16. A(B   2,B   3,B   4)          150.00 -0.000000    0.00    150.00   
    17. A(B   3,B   4,B   5)          150.00 -0.000000    0.00    150.00   
    18. A(B   4,B   5,B   6)          150.00 -0.000000    0.00    150.00   
    19. A(B   5,B   6,B   7)          150.00  0.000000   -0.00    150.00   
    20. A(B   6,B   7,B   8)          150.00  0.000000   -0.00    150.00   
    21. A(B   7,B   8,B   9)          150.00  0.000000   -0.00    150.00   
    22. A(B   8,B   9,B  10)          150.00  0.000000   -0.00    150.00   
    23. A(B   9,B  10,B  11)          150.00  0.000000   -0.00    150.00   
    24. A(B   0,B  11,B  10)          150.00  0.000000   -0.00    150.00   
    25. D(B   2,B   1,B   0,B  11)      0.00  0.000000   -0.00     -0.00   
    26. D(B   3,B   2,B   1,B   0)      0.00  0.000000    0.00      0.00   
    27. D(B   4,B   3,B   2,B   1)      0.00 -0.000000   -0.00     -0.00   
    28. D(B   5,B   4,B   3,B   2)      0.00 -0.000000    0.00      0.00   
    29. D(B   6,B   5,B   4,B   3)      0.00  0.000000   -0.00     -0.00   
    30. D(B   7,B   6,B   5,B   4)      0.00  0.000000   -0.00     -0.00   
    31. D(B   8,B   7,B   6,B   5)      0.00  0.000000    0.00      0.00   
    32. D(B   9,B   8,B   7,B   6)      0.00  0.000000    0.00      0.00   
    33. D(B  10,B   9,B   8,B   7)      0.00 -0.000000   -0.00     -0.00   
    34. D(B  11,B  10,B   9,B   8)      0.00 -0.000000    0.00      0.00   
    35. D(B   0,B  11,B  10,B   9)      0.00 -0.000000   -0.00     -0.00   
    36. D(B  10,B  11,B   0,B   1)      0.00  0.000000    0.00      0.00   
    ----------------------------------------------------------------------------

Geometry step timings:
Preparation and reading OPT file:      0.000 s ( 0.569 %)
Internal coordinates            :      0.000 s ( 0.637 %)
B/P matrices and projection     :      0.001 s ( 6.923 %)
Hessian update/contruction      :      0.000 s ( 3.387 %)
Making the step                 :      0.000 s ( 6.408 %)
Converting the step to Cartesian:      0.000 s ( 0.637 %)
Storing new data                :      0.000 s ( 0.569 %)
Checking convergence            :      0.005 s (64.422 %)
Final printing                  :      0.001 s (16.434 %)
Total time                      :      0.007 s

Time for energy+gradient        :      0.049 s
Time for complete geometry iter :      0.062 s

         *************************************************************
         *                GEOMETRY OPTIMIZATION CYCLE   2            *
         *************************************************************
---------------------------------
CARTESIAN COORDINATES (ANGSTROEM)
---------------------------------
  B     3.968355    0.000000   -0.000000
  B     3.436696    1.984178    0.000000
  B     1.984178    3.436696   -0.000000
  B     0.000000    3.968355    0.000000
  B    -1.984177    3.436697   -0.000000
  B    -3.436696    1.984178   -0.000000
  B    -3.968355    0.000000    0.000000
  B    -3.436697   -1.984178    0.000000
  B    -1.984178   -3.436697    0.000000
  B     0.000000   -3.968356    0.000000
  B     1.984178   -3.436697   -0.000000
  B     3.436697   -1.984178    0.000000

----------------------------
CARTESIAN COORDINATES (A.U.)
----------------------------
  NO LB    ZA    FRAG    MASS        X           Y           Z
   0 B   5.0000    0    10.810    7.499105    0.000000   -0.000000
   1 B   5.0000    0    10.810    6.494415    3.749552    0.000000
   2 B   5.0000    0    10.810    3.749552    6.494415   -0.000000
   3 B   5.0000    0    10.810    0.000000    7.499104    0.000000
   4 B   5.0000    0    10.810   -3.749552    6.494415   -0.000000
   5 B   5.0000    0    10.810   -6.494415    3.749553   -0.000000
   6 B   5.0000    0    10.810   -7.499105    0.000001    0.000000
   7 B   5.0000    0    10.810   -6.494416   -3.749552    0.000000
   8 B   5.0000    0    10.810   -3.749553   -6.494416    0.000000
   9 B   5.0000    0    10.810    0.000000   -7.499105    0.000000
  10 B   5.0000    0    10.810    3.749553   -6.494415   -0.000000
  11 B   5.0000    0    10.810    6.494416   -3.749552    0.000000

      -----------------------------------------------------------      
     |                   =====================                   |     
     |                           x T B                           |     
     |                   =====================                   |     
     |                         S. Grimme                         |     
     |          Mulliken Center for Theoretical Chemistry        |     
     |                    University of Bonn                     |     
      -----------------------------------------------------------      

   * xtb version 6.6.1 (unknown) compiled by 'builduser@buildhost' on 2023-08-07

   xtb is free software: you can redistribute it and/or modify it under
   the terms of the GNU Lesser General Public License as published by
   the Free Software Foundation, either version 3 of the License, or
   (at your option) any later version.
   
   xtb is distributed in the hope that it will be useful,
   but WITHOUT ANY WARRANTY; without even the implied warranty of
   MERCHANTABILITY or FITNESS FOR A PARTICULAR PURPOSE.  See the
   GNU Lesser General Public License for more details.
   
   Cite this work as:
   * C. Bannwarth, E. Caldeweyher, S. Ehlert, A. Hansen, P. Pracht,
     J. Seibert, S. Spicher, S. Grimme, WIREs Comput. Mol. Sci., 2020, 11,
     e01493. DOI: 10.1002/wcms.1493
   
   for GFN2-xTB:
   * C. Bannwarth, S. Ehlert and S. Grimme., J. Chem. Theory Comput., 2019,
     15, 1652-1671. DOI: 10.1021/acs.jctc.8b01176
   for GFN1-xTB:
   * S. Grimme, C. Bannwarth, P. Shushkov, J. Chem. Theory Comput., 2017,
     13, 1989-2009. DOI: 10.1021/acs.jctc.7b00118
   for GFN0-xTB:
   * P. Pracht, E. Caldeweyher, S. Ehlert, S. Grimme, ChemRxiv, 2019, preprint.
     DOI: 10.26434/chemrxiv.8326202.v1
   for GFN-FF:
   * S. Spicher and S. Grimme, Angew. Chem. Int. Ed., 2020, 59, 15665-15673.
     DOI: 10.1002/anie.202004239
   
   for ALPB and GBSA implicit solvation:
   * S. Ehlert, M. Stahn, S. Spicher, S. Grimme, J. Chem. Theory Comput.,
     2021, 17, 4250-4261. DOI: 10.1021/acs.jctc.1c00471
   
   for DFT-D4:
   * E. Caldeweyher, C. Bannwarth and S. Grimme, J. Chem. Phys., 2017,
     147, 034112. DOI: 10.1063/1.4993215
   * E. Caldeweyher, S. Ehlert, A. Hansen, H. Neugebauer, S. Spicher,
     C. Bannwarth and S. Grimme, J. Chem. Phys., 2019, 150, 154122.
     DOI: 10.1063/1.5090222
   * E. Caldeweyher, J.-M. Mewes, S. Ehlert and S. Grimme, Phys. Chem. Chem. Phys.
     2020, 22, 8499-8512. DOI: 10.1039/D0CP00502A
   
   for sTDA-xTB:
   * S. Grimme and C. Bannwarth, J. Chem. Phys., 2016, 145, 054103.
     DOI: 10.1063/1.4959605
   
   in the mass-spec context:
   * V. Asgeirsson, C. Bauer and S. Grimme, Chem. Sci., 2017, 8, 4879.
     DOI: 10.1039/c7sc00601b
   * J. Koopman and S. Grimme, ACS Omega 2019, 4, 12, 15120-15133.
     DOI: 10.1021/acsomega.9b02011
   
   for metadynamics refer to:
   * S. Grimme, J. Chem. Theory Comput., 2019, 155, 2847-2862
     DOI: 10.1021/acs.jctc.9b00143
   
   for SPH calculations refer to:
   * S. Spicher and S. Grimme, J. Chem. Theory Comput., 2021, 17, 1701-1714
     DOI: 10.1021/acs.jctc.0c01306
   
   with help from (in alphabetical order)
   P. Atkinson, C. Bannwarth, F. Bohle, G. Brandenburg, E. Caldeweyher
   M. Checinski, S. Dohm, S. Ehlert, S. Ehrlich, I. Gerasimov, C. Hölzer
   A. Katbashev, J. Koopman, C. Lavigne, S. Lehtola, F. März, M. Müller,
   F. Musil, H. Neugebauer, J. Pisarek, C. Plett, P. Pracht, F. Pultar,
   J. Seibert, P. Shushkov, S. Spicher, M. Stahn, M. Steiner, T. Strunk,
   J. Stückrath, T. Rose, and J. Unsleber
   
 * started run on 2026/04/17 at 12:14:27.272     

           -------------------------------------------------
          |                Calculation Setup                |
           -------------------------------------------------

          program call               : /usr/bin/xtb ring12_d2.10_m1_XTB.xyz --grad -c 0 -u 0 -P 1 --namespace ring12_d2.10_m1 --input ring12_d2.10_m1_XTB.input.tmp --acc 0.200000
          calculation namespace      : ring12_d2.10_m1
          coordinate file            : ring12_d2.10_m1_XTB.xyz
          omp threads                :                     1

   ID    Z sym.   atoms
    1    5 B      1-12

molecular fragmentation (1/2 indicates fragments):
112222222222
# atoms in fragment 1/2:     2    10
 fragment masses (1/2) :       21.62      108.11
CMA distance (Bohr)    :   8.692
constraining FC (au)   :  0.0500

           -------------------------------------------------
          |                 G F N 2 - x T B                 |
           -------------------------------------------------

        Reference                      10.1021/acs.jctc.8b01176
      * Hamiltonian:
        H0-scaling (s, p, d)           1.850000    2.230000    2.230000
        zeta-weighting                 0.500000
      * Dispersion:
        s8                             2.700000
        a1                             0.520000
        a2                             5.000000
        s9                             5.000000
      * Repulsion:
        kExp                           1.500000    1.000000
        rExp                           1.000000
      * Coulomb:
        alpha                          2.000000
        third order                    shell-resolved
        anisotropic                    true
        a3                             3.000000
        a5                             4.000000
        cn-shift                       1.200000
        cn-exp                         4.000000
        max-rad                        5.000000

q/qsh data taken from xtbrestart
CAMM data taken from xtbrestart

          ...................................................
          :                      SETUP                      :
          :.................................................:
          :  # basis functions                  48          :
          :  # atomic orbitals                  48          :
          :  # shells                           24          :
          :  # electrons                        36          :
          :  max. iterations                   250          :
          :  Hamiltonian                  GFN2-xTB          :
          :  restarted?                       true          :
          :  GBSA solvation                  false          :
          :  PC potential                    false          :
          :  electronic temp.          300.0000000     K    :
          :  accuracy                    0.2000000          :
          :  -> integral cutoff          0.3198970E+02      :
          :  -> integral neglect         0.2000000E-08      :
          :  -> SCF convergence          0.2000000E-06 Eh   :
          :  -> wf. convergence          0.2000000E-04 e    :
          :  Broyden damping             0.4000000          :
          ...................................................

 iter      E             dE          RMSdq      gap      omega  full diag
   1    -13.3005131 -0.133005E+02  0.213E-01    0.52       0.0  T
   2    -13.3005201 -0.699604E-05  0.133E-01    0.52       1.0  T
   3    -13.3005227 -0.265295E-05  0.344E-02    0.52       1.0  T
   4    -13.3003334  0.189314E-03  0.763E-02    0.52       1.0  T
   5    -13.3005223 -0.188887E-03  0.411E-03    0.52       7.0  T
   6    -13.3005185  0.377706E-05  0.992E-03    0.52       2.9  T
   7    -13.3005227 -0.414860E-05  0.316E-03    0.52       9.1  T
   8    -13.3005230 -0.365065E-06  0.307E-04    0.52      94.1  T
   9    -13.3005230  0.253574E-08  0.446E-04    0.52      64.7  T
  10    -13.3005230 -0.302616E-08  0.217E-04    0.52     133.1  T
  11    -13.3005230 -0.217629E-09  0.180E-04    0.52     160.2  T
  12    -13.3005230 -0.118362E-08  0.586E-05    0.52     492.4  T

   *** convergence criteria satisfied after 12 iterations ***

         #    Occupation            Energy/Eh            Energy/eV
      -------------------------------------------------------------
         1        2.0000           -0.3605968              -9.8123
       ...           ...                  ...                  ...
        12        2.0000           -0.2991529              -8.1404
        13        2.0000           -0.2434946              -6.6258
        14        2.0000           -0.2426403              -6.6026
        15        1.9999           -0.2368185              -6.4442
        16        1.9999           -0.2368184              -6.4442
        17        1.9999           -0.2362571              -6.4289
        18        1.9999           -0.2362571              -6.4289 (HOMO)
        19        0.0001           -0.2171466              -5.9089 (LUMO)
        20        0.0001           -0.2171466              -5.9089
        21        0.0001           -0.2171111              -5.9079
        22        0.0001           -0.2171111              -5.9079
        23                         -0.1878301              -5.1111
       ...                                ...                  ...
        48                          0.1760939               4.7918
      -------------------------------------------------------------
                  HL-Gap            0.0191105 Eh            0.5200 eV
             Fermi-level           -0.2268127 Eh           -6.1719 eV

 SCC (total)                   0 d,  0 h,  0 min,  0.025 sec
 SCC setup                      ...        0 min,  0.000 sec (  0.615%)
 Dispersion                     ...        0 min,  0.000 sec (  0.402%)
 classical contributions        ...        0 min,  0.000 sec (  0.161%)
 integral evaluation            ...        0 min,  0.003 sec ( 11.586%)
 iterations                     ...        0 min,  0.015 sec ( 62.417%)
 molecular gradient             ...        0 min,  0.006 sec ( 23.402%)
 printout                       ...        0 min,  0.000 sec (  1.335%)

         :::::::::::::::::::::::::::::::::::::::::::::::::::::
         ::                     SUMMARY                     ::
         :::::::::::::::::::::::::::::::::::::::::::::::::::::
         :: total energy             -13.295997047824 Eh    ::
         :: gradient norm              0.179160189253 Eh/a0 ::
         :: HOMO-LUMO gap              0.520023938669 eV    ::
         ::.................................................::
         :: SCC energy               -13.300523044562 Eh    ::
         :: -> isotropic ES            0.084767622562 Eh    ::
         :: -> anisotropic ES          0.005160016928 Eh    ::
         :: -> anisotropic XC         -0.078816977545 Eh    ::
         :: -> dispersion             -0.011839779497 Eh    ::
         :: repulsion energy           0.004371164678 Eh    ::
         :: add. restraining           0.000000000000 Eh    ::
         :: total charge              -0.000000000000 e     ::
         :::::::::::::::::::::::::::::::::::::::::::::::::::::


Property printout bound to 'properties.out'

           -------------------------------------------------
          | TOTAL ENERGY              -13.295997047824 Eh   |
          | GRADIENT NORM               0.179160189253 Eh/α |
          | HOMO-LUMO GAP               0.520023938669 eV   |
           -------------------------------------------------

------------------------------------------------------------------------
 * finished run on 2026/04/17 at 12:14:27.317     
------------------------------------------------------------------------
 total:
 * wall-time:     0 d,  0 h,  0 min,  0.045 sec
 *  cpu-time:     0 d,  0 h,  0 min,  0.039 sec
 * ratio c/w:     0.866 speedup
 SCF:
 * wall-time:     0 d,  0 h,  0 min,  0.025 sec
 *  cpu-time:     0 d,  0 h,  0 min,  0.023 sec
 * ratio c/w:     0.935 speedup


-------------------------   --------------------
FINAL SINGLE POINT ENERGY       -13.295997047820
-------------------------   --------------------


-------------
DIPOLE MOMENT
-------------
                                X             Y             Z
Total Dipole Moment    :     -0.00000       0.00000      -0.00000
                        -----------------------------------------
Magnitude (a.u.)       :      0.00000
Magnitude (Debye)      :      0.00000


------------------
CARTESIAN GRADIENT
------------------

   1   B   :    0.051719185    0.000000120   -0.000000000
   2   B   :    0.044790030    0.025859690    0.000000000
   3   B   :    0.025859527    0.044790044   -0.000000000
   4   B   :   -0.000000106    0.051719063    0.000000000
   5   B   :   -0.025859546    0.044789969   -0.000000000
   6   B   :   -0.044789979    0.025859455   -0.000000000
   7   B   :   -0.051719029    0.000000089    0.000000000
   8   B   :   -0.044790013   -0.025859468    0.000000000
   9   B   :   -0.025859600   -0.044790025   -0.000000000
  10   B   :   -0.000000101   -0.051719100    0.000000000
  11   B   :    0.025859558   -0.044790122   -0.000000000
  12   B   :    0.044790073   -0.025859714    0.000000000

Difference to translation invariance:
           :   -0.0000000000    0.0000000000    0.0000000000

Difference to rotation invariance:
           :    0.0000000000   -0.0000000000   -0.0000000001

Norm of the Cartesian gradient     ...    0.1791601893
RMS gradient                       ...    0.0298600315
MAX gradient                       ...    0.0517191853
------------------------------------------------------------------------------
                         ORCA GEOMETRY RELAXATION STEP
------------------------------------------------------------------------------

Reading the OPT-File                    .... done
Getting information on internals        .... done
Copying old internal coords+grads       .... done
Making the new internal coordinates     .... (2022 redundants) done
Validating the new internal coordinates .... (2022 redundants) done
Calculating the B-matrix                .... done
Calculating the G,G- and P matrices     .... done
Transforming gradient to internals      .... done
Projecting the internal gradient        .... done
Number of atoms                         ....  12
Number of internal coordinates          ....  36
Current Energy                          ....   -13.295997048 Eh
Current gradient norm                   ....     0.179160189 Eh/bohr
Maximum allowed component of the step   ....  0.300
Current trust radius                    ....  0.300
Updating the Hessian (BFGS)             .... done
Forming the augmented Hessian           .... done
Diagonalizing the augmented Hessian     .... done
Last element of RFO vector              ....  0.737850923
Lowest eigenvalues of augmented Hessian:
 -0.316611793  0.010000000  0.010000000  0.010000000  0.010000000
Length of the computed step             ....  0.914769762
Warning: the length of the step is outside the trust region - taking restricted step instead
The input lambda is                     ....     0.009000
   iter:   5  x=   -0.326500  g=   13.109126 f(x)=     1.636524
   iter:  10  x=   -1.090441  g=    0.170809 f(x)=     0.005601
The output lambda is                    ....    -1.091956 (14 iterations)
The final length of the internal step   ....  0.300000000
Converting the step to Cartesian space:
 Initial RMS(Int)=    0.0500000000
Transforming coordinates:
 Iter   0:  RMS(Cart)=    0.0965925826 RMS(Int)=    0.0500000000
done
Storing new coordinates                 .... done
The predicted energy change is          ....    -0.101054671
Previously predicted energy change      ....    -0.100061807
Actually observed energy change         ....    -0.103424332
Ratio of predicted to observed change   ....     1.033604480
New trust radius                        ....     0.450000000

                                .--------------------.
          ----------------------|Geometry convergence|-------------------------
          Item                value                   Tolerance       Converged
          ---------------------------------------------------------------------
          Energy change      -0.1034243316            0.0000010000      NO
          RMS gradient        0.0576851513            0.0000300000      NO
          MAX gradient        0.0999138821            0.0001000000      NO
          RMS step            0.0500000000            0.0006000000      NO
          MAX step            0.0866027734            0.0010000000      NO
          -------------------------------------------------------------------------
          ........................................................
          Max(Bonds)      0.0458      Max(Angles)    0.00
          Max(Dihed)        0.00      Max(Improp)    0.00
          ---------------------------------------------------------------------

The optimization has not yet converged - more geometry cycles are needed


    ---------------------------------------------------------------------------
                         Redundant Internal Coordinates
                            (Angstroem and degrees)

        Definition                    Value    dE/dq     Step     New-Value
    ----------------------------------------------------------------------------
     1. B(B   1,B   0)                2.0542  0.099914 -0.0458    2.0083   
     2. B(B   2,B   1)                2.0542  0.099914 -0.0458    2.0083   
     3. B(B   3,B   2)                2.0542  0.099914 -0.0458    2.0083   
     4. B(B   4,B   3)                2.0542  0.099914 -0.0458    2.0083   
     5. B(B   5,B   4)                2.0542  0.099913 -0.0458    2.0083   
     6. B(B   6,B   5)                2.0542  0.099913 -0.0458    2.0083   
     7. B(B   7,B   6)                2.0542  0.099913 -0.0458    2.0083   
     8. B(B   8,B   7)                2.0542  0.099914 -0.0458    2.0083   
     9. B(B   9,B   8)                2.0542  0.099914 -0.0458    2.0083   
    10. B(B  10,B   9)                2.0542  0.099914 -0.0458    2.0083   
    11. B(B  11,B  10)                2.0542  0.099914 -0.0458    2.0083   
    12. B(B  11,B   0)                2.0542  0.099914 -0.0458    2.0083   
    13. A(B   1,B   0,B  11)          150.00 -0.000000    0.00    150.00   
    14. A(B   0,B   1,B   2)          150.00 -0.000000    0.00    150.00   
    15. A(B   1,B   2,B   3)          150.00  0.000000   -0.00    150.00   
    16. A(B   2,B   3,B   4)          150.00  0.000000   -0.00    150.00   
    17. A(B   3,B   4,B   5)          150.00  0.000000   -0.00    150.00   
    18. A(B   4,B   5,B   6)          150.00  0.000000   -0.00    150.00   
    19. A(B   5,B   6,B   7)          150.00  0.000000   -0.00    150.00   
    20. A(B   6,B   7,B   8)          150.00  0.000000   -0.00    150.00   
    21. A(B   7,B   8,B   9)          150.00 -0.000000    0.00    150.00   
    22. A(B   8,B   9,B  10)          150.00  0.000000   -0.00    150.00   
    23. A(B   9,B  10,B  11)          150.00 -0.000000    0.00    150.00   
    24. A(B   0,B  11,B  10)          150.00 -0.000000    0.00    150.00   
    25. D(B   2,B   1,B   0,B  11)     -0.00 -0.000000   -0.00     -0.00   
    26. D(B   3,B   2,B   1,B   0)      0.00  0.000000    0.00      0.00   
    27. D(B   4,B   3,B   2,B   1)     -0.00  0.000000   -0.00     -0.00   
    28. D(B   5,B   4,B   3,B   2)      0.00  0.000000    0.00      0.00   
    29. D(B   6,B   5,B   4,B   3)     -0.00 -0.000000   -0.00     -0.00   
    30. D(B   7,B   6,B   5,B   4)     -0.00 -0.000000   -0.00     -0.00   
    31. D(B   8,B   7,B   6,B   5)      0.00 -0.000000    0.00      0.00   
    32. D(B   9,B   8,B   7,B   6)      0.00 -0.000000    0.00      0.00   
    33. D(B  10,B   9,B   8,B   7)     -0.00  0.000000   -0.00     -0.00   
    34. D(B  11,B  10,B   9,B   8)      0.00  0.000000    0.00      0.00   
    35. D(B   0,B  11,B  10,B   9)     -0.00 -0.000000   -0.00     -0.00   
    36. D(B  10,B  11,B   0,B   1)      0.00  0.000000    0.00      0.00   
    ----------------------------------------------------------------------------

Geometry step timings:
Preparation and reading OPT file:      0.000 s ( 0.688 %)
Internal coordinates            :      0.000 s ( 0.739 %)
B/P matrices and projection     :      0.000 s (10.398 %)
Hessian update/contruction      :      0.000 s ( 9.582 %)
Making the step                 :      0.000 s (12.003 %)
Converting the step to Cartesian:      0.000 s ( 0.892 %)
Storing new data                :      0.000 s ( 1.351 %)
Checking convergence            :      0.000 s ( 1.453 %)
Final printing                  :      0.002 s (62.895 %)
Total time                      :      0.004 s

Time for energy+gradient        :      0.065 s
Time for complete geometry iter :      0.070 s

         *************************************************************
         *                GEOMETRY OPTIMIZATION CYCLE   3            *
         *************************************************************
---------------------------------
CARTESIAN COORDINATES (ANGSTROEM)
---------------------------------
  B     3.879822    0.000000   -0.000000
  B     3.360024    1.939911    0.000000
  B     1.939911    3.360024   -0.000000
  B     0.000000    3.879822    0.000000
  B    -1.939911    3.360025   -0.000000
  B    -3.360025    1.939911   -0.000000
  B    -3.879822    0.000000    0.000000
  B    -3.360025   -1.939911    0.000000
  B    -1.939911   -3.360025    0.000000
  B     0.000000   -3.879823    0.000000
  B     1.939911   -3.360025   -0.000000
  B     3.360025   -1.939911    0.000000

----------------------------
CARTESIAN COORDINATES (A.U.)
----------------------------
  NO LB    ZA    FRAG    MASS        X           Y           Z
   0 B   5.0000    0    10.810    7.331801    0.000000   -0.000000
   1 B   5.0000    0    10.810    6.349526    3.665901    0.000000
   2 B   5.0000    0    10.810    3.665901    6.349526   -0.000000
   3 B   5.0000    0    10.810    0.000000    7.331801    0.000000
   4 B   5.0000    0    10.810   -3.665900    6.349527   -0.000000
   5 B   5.0000    0    10.810   -6.349526    3.665901   -0.000000
   6 B   5.0000    0    10.810   -7.331802    0.000000    0.000000
   7 B   5.0000    0    10.810   -6.349527   -3.665901    0.000000
   8 B   5.0000    0    10.810   -3.665901   -6.349527    0.000000
   9 B   5.0000    0    10.810    0.000000   -7.331802    0.000000
  10 B   5.0000    0    10.810    3.665901   -6.349526   -0.000000
  11 B   5.0000    0    10.810    6.349527   -3.665900    0.000000

      -----------------------------------------------------------      
     |                   =====================                   |     
     |                           x T B                           |     
     |                   =====================                   |     
     |                         S. Grimme                         |     
     |          Mulliken Center for Theoretical Chemistry        |     
     |                    University of Bonn                     |     
      -----------------------------------------------------------      

   * xtb version 6.6.1 (unknown) compiled by 'builduser@buildhost' on 2023-08-07

   xtb is free software: you can redistribute it and/or modify it under
   the terms of the GNU Lesser General Public License as published by
   the Free Software Foundation, either version 3 of the License, or
   (at your option) any later version.
   
   xtb is distributed in the hope that it will be useful,
   but WITHOUT ANY WARRANTY; without even the implied warranty of
   MERCHANTABILITY or FITNESS FOR A PARTICULAR PURPOSE.  See the
   GNU Lesser General Public License for more details.
   
   Cite this work as:
   * C. Bannwarth, E. Caldeweyher, S. Ehlert, A. Hansen, P. Pracht,
     J. Seibert, S. Spicher, S. Grimme, WIREs Comput. Mol. Sci., 2020, 11,
     e01493. DOI: 10.1002/wcms.1493
   
   for GFN2-xTB:
   * C. Bannwarth, S. Ehlert and S. Grimme., J. Chem. Theory Comput., 2019,
     15, 1652-1671. DOI: 10.1021/acs.jctc.8b01176
   for GFN1-xTB:
   * S. Grimme, C. Bannwarth, P. Shushkov, J. Chem. Theory Comput., 2017,
     13, 1989-2009. DOI: 10.1021/acs.jctc.7b00118
   for GFN0-xTB:
   * P. Pracht, E. Caldeweyher, S. Ehlert, S. Grimme, ChemRxiv, 2019, preprint.
     DOI: 10.26434/chemrxiv.8326202.v1
   for GFN-FF:
   * S. Spicher and S. Grimme, Angew. Chem. Int. Ed., 2020, 59, 15665-15673.
     DOI: 10.1002/anie.202004239
   
   for ALPB and GBSA implicit solvation:
   * S. Ehlert, M. Stahn, S. Spicher, S. Grimme, J. Chem. Theory Comput.,
     2021, 17, 4250-4261. DOI: 10.1021/acs.jctc.1c00471
   
   for DFT-D4:
   * E. Caldeweyher, C. Bannwarth and S. Grimme, J. Chem. Phys., 2017,
     147, 034112. DOI: 10.1063/1.4993215
   * E. Caldeweyher, S. Ehlert, A. Hansen, H. Neugebauer, S. Spicher,
     C. Bannwarth and S. Grimme, J. Chem. Phys., 2019, 150, 154122.
     DOI: 10.1063/1.5090222
   * E. Caldeweyher, J.-M. Mewes, S. Ehlert and S. Grimme, Phys. Chem. Chem. Phys.
     2020, 22, 8499-8512. DOI: 10.1039/D0CP00502A
   
   for sTDA-xTB:
   * S. Grimme and C. Bannwarth, J. Chem. Phys., 2016, 145, 054103.
     DOI: 10.1063/1.4959605
   
   in the mass-spec context:
   * V. Asgeirsson, C. Bauer and S. Grimme, Chem. Sci., 2017, 8, 4879.
     DOI: 10.1039/c7sc00601b
   * J. Koopman and S. Grimme, ACS Omega 2019, 4, 12, 15120-15133.
     DOI: 10.1021/acsomega.9b02011
   
   for metadynamics refer to:
   * S. Grimme, J. Chem. Theory Comput., 2019, 155, 2847-2862
     DOI: 10.1021/acs.jctc.9b00143
   
   for SPH calculations refer to:
   * S. Spicher and S. Grimme, J. Chem. Theory Comput., 2021, 17, 1701-1714
     DOI: 10.1021/acs.jctc.0c01306
   
   with help from (in alphabetical order)
   P. Atkinson, C. Bannwarth, F. Bohle, G. Brandenburg, E. Caldeweyher
   M. Checinski, S. Dohm, S. Ehlert, S. Ehrlich, I. Gerasimov, C. Hölzer
   A. Katbashev, J. Koopman, C. Lavigne, S. Lehtola, F. März, M. Müller,
   F. Musil, H. Neugebauer, J. Pisarek, C. Plett, P. Pracht, F. Pultar,
   J. Seibert, P. Shushkov, S. Spicher, M. Stahn, M. Steiner, T. Strunk,
   J. Stückrath, T. Rose, and J. Unsleber
   
 * started run on 2026/04/17 at 12:14:27.332     

           -------------------------------------------------
          |                Calculation Setup                |
           -------------------------------------------------

          program call               : /usr/bin/xtb ring12_d2.10_m1_XTB.xyz --grad -c 0 -u 0 -P 1 --namespace ring12_d2.10_m1 --input ring12_d2.10_m1_XTB.input.tmp --acc 0.200000
          calculation namespace      : ring12_d2.10_m1
          coordinate file            : ring12_d2.10_m1_XTB.xyz
          omp threads                :                     1

   ID    Z sym.   atoms
    1    5 B      1-12

molecular fragmentation (1/2 indicates fragments):
112222222222
# atoms in fragment 1/2:     2    10
 fragment masses (1/2) :       21.62      108.11
CMA distance (Bohr)    :   8.498
constraining FC (au)   :  0.0500

           -------------------------------------------------
          |                 G F N 2 - x T B                 |
           -------------------------------------------------

        Reference                      10.1021/acs.jctc.8b01176
      * Hamiltonian:
        H0-scaling (s, p, d)           1.850000    2.230000    2.230000
        zeta-weighting                 0.500000
      * Dispersion:
        s8                             2.700000
        a1                             0.520000
        a2                             5.000000
        s9                             5.000000
      * Repulsion:
        kExp                           1.500000    1.000000
        rExp                           1.000000
      * Coulomb:
        alpha                          2.000000
        third order                    shell-resolved
        anisotropic                    true
        a3                             3.000000
        a5                             4.000000
        cn-shift                       1.200000
        cn-exp                         4.000000
        max-rad                        5.000000

q/qsh data taken from xtbrestart
CAMM data taken from xtbrestart

          ...................................................
          :                      SETUP                      :
          :.................................................:
          :  # basis functions                  48          :
          :  # atomic orbitals                  48          :
          :  # shells                           24          :
          :  # electrons                        36          :
          :  max. iterations                   250          :
          :  Hamiltonian                  GFN2-xTB          :
          :  restarted?                       true          :
          :  GBSA solvation                  false          :
          :  PC potential                    false          :
          :  electronic temp.          300.0000000     K    :
          :  accuracy                    0.2000000          :
          :  -> integral cutoff          0.3198970E+02      :
          :  -> integral neglect         0.2000000E-08      :
          :  -> SCF convergence          0.2000000E-06 Eh   :
          :  -> wf. convergence          0.2000000E-04 e    :
          :  Broyden damping             0.4000000          :
          ...................................................

 iter      E             dE          RMSdq      gap      omega  full diag
   1    -13.4063830 -0.134064E+02  0.274E-01    0.55       0.0  T
   2    -13.4063898 -0.671275E-05  0.175E-01    0.55       1.0  T
   3    -13.4063172  0.725147E-04  0.512E-02    0.55       1.0  T
   4    -13.4030920  0.322525E-02  0.270E-01    0.54       1.0  T
   5    -13.4061816 -0.308965E-02  0.723E-02    0.55       1.0  T
   6    -13.4063922 -0.210600E-03  0.399E-03    0.55       7.2  T
   7    -13.4063859  0.631704E-05  0.150E-02    0.55       1.9  T
   8    -13.4063924 -0.645290E-05  0.356E-03    0.55       8.1  T
   9    -13.4063927 -0.296105E-06  0.132E-03    0.55      21.9  T
  10    -13.4063927 -0.636209E-07  0.595E-04    0.55      48.5  T
  11    -13.4063928 -0.832972E-08  0.484E-04    0.55      59.6  T
  12    -13.4063928 -0.362661E-08  0.275E-04    0.55     104.8  T
  13    -13.4063928 -0.165011E-08  0.166E-04    0.55     174.1  T
  14    -13.4063928 -0.742718E-09  0.905E-05    0.55     319.0  T

   *** convergence criteria satisfied after 14 iterations ***

         #    Occupation            Energy/Eh            Energy/eV
      -------------------------------------------------------------
         1        2.0000           -0.3634836              -9.8909
       ...           ...                  ...                  ...
        12        2.0000           -0.2997724              -8.1572
        13        2.0000           -0.2462896              -6.7019
        14        2.0000           -0.2451206              -6.6701
        15        2.0000           -0.2392021              -6.5090
        16        2.0000           -0.2392019              -6.5090
        17        1.9999           -0.2383446              -6.4857
        18        1.9999           -0.2383445              -6.4857 (HOMO)
        19        0.0000           -0.2182156              -5.9379 (LUMO)
        20        0.0000           -0.2182155              -5.9379
        21        0.0000           -0.2178587              -5.9282
        22        0.0000           -0.2178586              -5.9282
        23                         -0.1860950              -5.0639
       ...                                ...                  ...
        48                          0.2152254               5.8566
      -------------------------------------------------------------
                  HL-Gap            0.0201288 Eh            0.5477 eV
             Fermi-level           -0.2283665 Eh           -6.2142 eV

 SCC (total)                   0 d,  0 h,  0 min,  0.026 sec
 SCC setup                      ...        0 min,  0.000 sec (  0.589%)
 Dispersion                     ...        0 min,  0.000 sec (  0.376%)
 classical contributions        ...        0 min,  0.000 sec (  0.133%)
 integral evaluation            ...        0 min,  0.003 sec ( 11.839%)
 iterations                     ...        0 min,  0.016 sec ( 62.183%)
 molecular gradient             ...        0 min,  0.006 sec ( 23.509%)
 printout                       ...        0 min,  0.000 sec (  1.292%)

         :::::::::::::::::::::::::::::::::::::::::::::::::::::
         ::                     SUMMARY                     ::
         :::::::::::::::::::::::::::::::::::::::::::::::::::::
         :: total energy             -13.399884996906 Eh    ::
         :: gradient norm              0.178950871444 Eh/a0 ::
         :: HOMO-LUMO gap              0.547733575756 eV    ::
         ::.................................................::
         :: SCC energy               -13.406392756187 Eh    ::
         :: -> isotropic ES            0.086502839245 Eh    ::
         :: -> anisotropic ES          0.005208477601 Eh    ::
         :: -> anisotropic XC         -0.077439286287 Eh    ::
         :: -> dispersion             -0.011973419575 Eh    ::
         :: repulsion energy           0.006342349746 Eh    ::
         :: add. restraining           0.000000000000 Eh    ::
         :: total charge              -0.000000000000 e     ::
         :::::::::::::::::::::::::::::::::::::::::::::::::::::


Property printout bound to 'properties.out'

           -------------------------------------------------
          | TOTAL ENERGY              -13.399884996906 Eh   |
          | GRADIENT NORM               0.178950871444 Eh/α |
          | HOMO-LUMO GAP               0.547733575756 eV   |
           -------------------------------------------------

------------------------------------------------------------------------
 * finished run on 2026/04/17 at 12:14:27.371     
------------------------------------------------------------------------
 total:
 * wall-time:     0 d,  0 h,  0 min,  0.039 sec
 *  cpu-time:     0 d,  0 h,  0 min,  0.038 sec
 * ratio c/w:     0.980 speedup
 SCF:
 * wall-time:     0 d,  0 h,  0 min,  0.026 sec
 *  cpu-time:     0 d,  0 h,  0 min,  0.026 sec
 * ratio c/w:     0.976 speedup


-------------------------   --------------------
FINAL SINGLE POINT ENERGY       -13.399884996910
-------------------------   --------------------


-------------
DIPOLE MOMENT
-------------
                                X             Y             Z
Total Dipole Moment    :     -0.00000      -0.00000      -0.00000
                        -----------------------------------------
Magnitude (a.u.)       :      0.00000
Magnitude (Debye)      :      0.00000


------------------
CARTESIAN GRADIENT
------------------

   1   B   :    0.051658696   -0.000000066   -0.000000000
   2   B   :    0.044737584    0.025829350    0.000000000
   3   B   :    0.025829297    0.044737739   -0.000000000
   4   B   :    0.000000297    0.051658612    0.000000000
   5   B   :   -0.025829442    0.044737764   -0.000000000
   6   B   :   -0.044737743    0.025829334   -0.000000000
   7   B   :   -0.051658679   -0.000000111    0.000000000
   8   B   :   -0.044737606   -0.025829401    0.000000000
   9   B   :   -0.025829402   -0.044737623   -0.000000000
  10   B   :   -0.000000201   -0.051658677    0.000000000
  11   B   :    0.025829347   -0.044737845   -0.000000000
  12   B   :    0.044737853   -0.025829076    0.000000000

Difference to translation invariance:
           :   -0.0000000000    0.0000000000   -0.0000000000

Difference to rotation invariance:
           :   -0.0000000000   -0.0000000000   -0.0000000028

Norm of the Cartesian gradient     ...    0.1789508714
RMS gradient                       ...    0.0298251452
MAX gradient                       ...    0.0516586957
------------------------------------------------------------------------------
                         ORCA GEOMETRY RELAXATION STEP
------------------------------------------------------------------------------

Reading the OPT-File                    .... done
Getting information on internals        .... done
Copying old internal coords+grads       .... done
Making the new internal coordinates     .... (2022 redundants) done
Validating the new internal coordinates .... (2022 redundants) done
Calculating the B-matrix                .... done
Calculating the G,G- and P matrices     .... done
Transforming gradient to internals      .... done
Projecting the internal gradient        .... done
Number of atoms                         ....  12
Number of internal coordinates          ....  36
Current Energy                          ....   -13.399884997 Eh
Current gradient norm                   ....     0.178950871 Eh/bohr
Maximum allowed component of the step   ....  0.300
Current trust radius                    ....  0.450
Updating the Hessian (BFGS)             .... done
Forming the augmented Hessian           .... done
Diagonalizing the augmented Hessian     .... done
Last element of RFO vector              ....  0.707795693
Lowest eigenvalues of augmented Hessian:
 -0.345033242  0.010000000  0.010000000  0.010000000  0.010000000
Length of the computed step             ....  0.998052410
Warning: the length of the step is outside the trust region - taking restricted step instead
The input lambda is                     ....     0.000348
   iter:   5  x=   -0.006246  g=1842324.401181 f(x)=  4663.123505
   iter:  10  x=   -0.056231  g= 4215.527491 f(x)=    80.772884
   iter:  15  x=   -0.401454  g=   10.763986 f(x)=     1.310250
   iter:  20  x=   -0.766889  g=    0.527921 f(x)=     0.000189
The output lambda is                    ....    -0.766889 (23 iterations)
[...]
    20. A(B   6,B   7,B   8)          150.00 -0.000001    0.00    150.00   
    21. A(B   7,B   8,B   9)          150.00 -0.000001    0.00    150.00   
    22. A(B   8,B   9,B  10)          150.00 -0.000000    0.00    150.00   
    23. A(B   9,B  10,B  11)          150.00  0.000000   -0.00    150.00   
    24. A(B   0,B  11,B  10)          150.00  0.000001   -0.00    150.00   
    25. D(B   2,B   1,B   0,B  11)      0.00  0.000000   -0.00     -0.00   
    26. D(B   3,B   2,B   1,B   0)      0.00  0.000000   -0.00     -0.00   
    27. D(B   4,B   3,B   2,B   1)      0.00  0.000000   -0.00     -0.00   
    28. D(B   5,B   4,B   3,B   2)     -0.00 -0.000000    0.00      0.00   
    29. D(B   6,B   5,B   4,B   3)     -0.00 -0.000000    0.00      0.00   
    30. D(B   7,B   6,B   5,B   4)     -0.00 -0.000000    0.00      0.00   
    31. D(B   8,B   7,B   6,B   5)      0.00  0.000000   -0.00     -0.00   
    32. D(B   9,B   8,B   7,B   6)      0.00  0.000000   -0.00     -0.00   
    33. D(B  10,B   9,B   8,B   7)      0.00  0.000000   -0.00     -0.00   
    34. D(B  11,B  10,B   9,B   8)     -0.00 -0.000000    0.00      0.00   
    35. D(B   0,B  11,B  10,B   9)     -0.00 -0.000000    0.00      0.00   
    36. D(B  10,B  11,B   0,B   1)     -0.00 -0.000000    0.00      0.00   
    ----------------------------------------------------------------------------

Geometry step timings:
Preparation and reading OPT file:      0.000 s ( 2.010 %)
Internal coordinates            :      0.000 s ( 1.630 %)
B/P matrices and projection     :      0.000 s (23.954 %)
Hessian update/contruction      :      0.000 s (24.823 %)
Making the step                 :      0.000 s (14.231 %)
Converting the step to Cartesian:      0.000 s ( 3.096 %)
Storing new data                :      0.000 s ( 2.716 %)
Checking convergence            :      0.000 s ( 3.911 %)
Final printing                  :      0.000 s (23.628 %)
Total time                      :      0.002 s
                 *******************************************************
                 *** FINAL ENERGY EVALUATION AT THE STATIONARY POINT ***
                 ***               (AFTER   10 CYCLES)               ***
                 *******************************************************
---------------------------------
CARTESIAN COORDINATES (ANGSTROEM)
---------------------------------
  B     2.923224   -0.000006   -0.000000
  B     2.531584    1.461630   -0.000000
  B     1.461589    2.531595    0.000000
  B    -0.000034    2.923196    0.000000
  B    -1.461623    2.531515    0.000000
  B    -2.531541    1.461536   -0.000000
  B    -2.923136   -0.000021   -0.000000
  B    -2.531514   -1.461562   -0.000000
  B    -1.461601   -2.531503    0.000000
  B    -0.000049   -2.923165    0.000000
  B     1.461548   -2.531580    0.000000
  B     2.531553   -1.461636   -0.000000

----------------------------
CARTESIAN COORDINATES (A.U.)
----------------------------
  NO LB    ZA    FRAG    MASS        X           Y           Z
   0 B   5.0000    0    10.810    5.524092   -0.000011   -0.000000
   1 B   5.0000    0    10.810    4.784000    2.762080   -0.000000
   2 B   5.0000    0    10.810    2.762004    4.784022    0.000000
   3 B   5.0000    0    10.810   -0.000064    5.524039    0.000000
   4 B   5.0000    0    10.810   -2.762067    4.783870    0.000000
   5 B   5.0000    0    10.810   -4.783919    2.761904   -0.000000
   6 B   5.0000    0    10.810   -5.523927   -0.000040   -0.000000
   7 B   5.0000    0    10.810   -4.783867   -2.761952   -0.000000
   8 B   5.0000    0    10.810   -2.762026   -4.783847    0.000000
   9 B   5.0000    0    10.810   -0.000093   -5.523981    0.000000
  10 B   5.0000    0    10.810    2.761926   -4.783993    0.000000
  11 B   5.0000    0    10.810    4.783942   -2.762091   -0.000000

      -----------------------------------------------------------      
     |                   =====================                   |     
     |                           x T B                           |     
     |                   =====================                   |     
     |                         S. Grimme                         |     
     |          Mulliken Center for Theoretical Chemistry        |     
     |                    University of Bonn                     |     
      -----------------------------------------------------------      

   * xtb version 6.6.1 (unknown) compiled by 'builduser@buildhost' on 2023-08-07

   xtb is free software: you can redistribute it and/or modify it under
   the terms of the GNU Lesser General Public License as published by
   the Free Software Foundation, either version 3 of the License, or
   (at your option) any later version.
   
   xtb is distributed in the hope that it will be useful,
   but WITHOUT ANY WARRANTY; without even the implied warranty of
   MERCHANTABILITY or FITNESS FOR A PARTICULAR PURPOSE.  See the
   GNU Lesser General Public License for more details.
   
   Cite this work as:
   * C. Bannwarth, E. Caldeweyher, S. Ehlert, A. Hansen, P. Pracht,
     J. Seibert, S. Spicher, S. Grimme, WIREs Comput. Mol. Sci., 2020, 11,
     e01493. DOI: 10.1002/wcms.1493
   
   for GFN2-xTB:
   * C. Bannwarth, S. Ehlert and S. Grimme., J. Chem. Theory Comput., 2019,
     15, 1652-1671. DOI: 10.1021/acs.jctc.8b01176
   for GFN1-xTB:
   * S. Grimme, C. Bannwarth, P. Shushkov, J. Chem. Theory Comput., 2017,
     13, 1989-2009. DOI: 10.1021/acs.jctc.7b00118
   for GFN0-xTB:
   * P. Pracht, E. Caldeweyher, S. Ehlert, S. Grimme, ChemRxiv, 2019, preprint.
     DOI: 10.26434/chemrxiv.8326202.v1
   for GFN-FF:
   * S. Spicher and S. Grimme, Angew. Chem. Int. Ed., 2020, 59, 15665-15673.
     DOI: 10.1002/anie.202004239
   
   for ALPB and GBSA implicit solvation:
   * S. Ehlert, M. Stahn, S. Spicher, S. Grimme, J. Chem. Theory Comput.,
     2021, 17, 4250-4261. DOI: 10.1021/acs.jctc.1c00471
   
   for DFT-D4:
   * E. Caldeweyher, C. Bannwarth and S. Grimme, J. Chem. Phys., 2017,
     147, 034112. DOI: 10.1063/1.4993215
   * E. Caldeweyher, S. Ehlert, A. Hansen, H. Neugebauer, S. Spicher,
     C. Bannwarth and S. Grimme, J. Chem. Phys., 2019, 150, 154122.
     DOI: 10.1063/1.5090222
   * E. Caldeweyher, J.-M. Mewes, S. Ehlert and S. Grimme, Phys. Chem. Chem. Phys.
     2020, 22, 8499-8512. DOI: 10.1039/D0CP00502A
   
   for sTDA-xTB:
   * S. Grimme and C. Bannwarth, J. Chem. Phys., 2016, 145, 054103.
     DOI: 10.1063/1.4959605
   
   in the mass-spec context:
   * V. Asgeirsson, C. Bauer and S. Grimme, Chem. Sci., 2017, 8, 4879.
     DOI: 10.1039/c7sc00601b
   * J. Koopman and S. Grimme, ACS Omega 2019, 4, 12, 15120-15133.
     DOI: 10.1021/acsomega.9b02011
   
   for metadynamics refer to:
   * S. Grimme, J. Chem. Theory Comput., 2019, 155, 2847-2862
     DOI: 10.1021/acs.jctc.9b00143
   
   for SPH calculations refer to:
   * S. Spicher and S. Grimme, J. Chem. Theory Comput., 2021, 17, 1701-1714
     DOI: 10.1021/acs.jctc.0c01306
   
   with help from (in alphabetical order)
   P. Atkinson, C. Bannwarth, F. Bohle, G. Brandenburg, E. Caldeweyher
   M. Checinski, S. Dohm, S. Ehlert, S. Ehrlich, I. Gerasimov, C. Hölzer
   A. Katbashev, J. Koopman, C. Lavigne, S. Lehtola, F. März, M. Müller,
   F. Musil, H. Neugebauer, J. Pisarek, C. Plett, P. Pracht, F. Pultar,
   J. Seibert, P. Shushkov, S. Spicher, M. Stahn, M. Steiner, T. Strunk,
   J. Stückrath, T. Rose, and J. Unsleber
   
 * started run on 2026/04/17 at 12:14:27.706     

           -------------------------------------------------
          |                Calculation Setup                |
           -------------------------------------------------

          program call               : /usr/bin/xtb ring12_d2.10_m1_XTB.xyz --grad -c 0 -u 0 -P 1 --namespace ring12_d2.10_m1 --input ring12_d2.10_m1_XTB.input.tmp --acc 0.200000
          calculation namespace      : ring12_d2.10_m1
          coordinate file            : ring12_d2.10_m1_XTB.xyz
          omp threads                :                     1

   ID    Z sym.   atoms
    1    5 B      1-12

           -------------------------------------------------
          |                 G F N 2 - x T B                 |
           -------------------------------------------------

        Reference                      10.1021/acs.jctc.8b01176
      * Hamiltonian:
        H0-scaling (s, p, d)           1.850000    2.230000    2.230000
        zeta-weighting                 0.500000
      * Dispersion:
        s8                             2.700000
        a1                             0.520000
        a2                             5.000000
        s9                             5.000000
      * Repulsion:
        kExp                           1.500000    1.000000
        rExp                           1.000000
      * Coulomb:
        alpha                          2.000000
        third order                    shell-resolved
        anisotropic                    true
        a3                             3.000000
        a5                             4.000000
        cn-shift                       1.200000
        cn-exp                         4.000000
        max-rad                        5.000000

q/qsh data taken from xtbrestart
CAMM data taken from xtbrestart

          ...................................................
          :                      SETUP                      :
          :.................................................:
          :  # basis functions                  48          :
          :  # atomic orbitals                  48          :
          :  # shells                           24          :
          :  # electrons                        36          :
          :  max. iterations                   250          :
          :  Hamiltonian                  GFN2-xTB          :
          :  restarted?                       true          :
          :  GBSA solvation                  false          :
          :  PC potential                    false          :
          :  electronic temp.          300.0000000     K    :
          :  accuracy                    0.2000000          :
          :  -> integral cutoff          0.3198970E+02      :
          :  -> integral neglect         0.2000000E-08      :
          :  -> SCF convergence          0.2000000E-06 Eh   :
          :  -> wf. convergence          0.2000000E-04 e    :
          :  Broyden damping             0.4000000          :
          ...................................................

 iter      E             dE          RMSdq      gap      omega  full diag
   1    -14.5344702 -0.145345E+02  0.132E-03    0.95       0.0  T
   2    -14.5344699  0.312688E-06  0.233E-03    0.95      12.4  T
   3    -14.5344698  0.990446E-07  0.301E-03    0.95       9.6  T
   4    -14.5344701 -0.368616E-06  0.144E-03    0.95      20.1  T
   5    -14.5344702 -0.505911E-07  0.145E-04    0.95     198.6  T
   6    -14.5344702 -0.292834E-09  0.122E-04    0.95     236.0  T

   *** convergence criteria satisfied after 6 iterations ***

         #    Occupation            Energy/Eh            Energy/eV
      -------------------------------------------------------------
         1        2.0000           -0.3950225             -10.7491
       ...           ...                  ...                  ...
        12        2.0000           -0.2876461              -7.8272
        13        2.0000           -0.2846976              -7.7470
        14        2.0000           -0.2824526              -7.6859
        15        2.0000           -0.2751204              -7.4864
        16        2.0000           -0.2751198              -7.4864
        17        2.0000           -0.2702133              -7.3529
        18        2.0000           -0.2702128              -7.3529 (HOMO)
        19                         -0.2354816              -6.4078 (LUMO)
        20                         -0.2354815              -6.4078
        21                         -0.2290635              -6.2331
        22                         -0.2290634              -6.2331
        23                         -0.1639693              -4.4618
       ...                                ...                  ...
        48                          1.2359335              33.6315
      -------------------------------------------------------------
                  HL-Gap            0.0347312 Eh            0.9451 eV
             Fermi-level           -0.2528451 Eh           -6.8803 eV

 SCC (total)                   0 d,  0 h,  0 min,  0.017 sec
 SCC setup                      ...        0 min,  0.000 sec (  0.863%)
 Dispersion                     ...        0 min,  0.000 sec (  0.572%)
 classical contributions        ...        0 min,  0.000 sec (  0.207%)
 integral evaluation            ...        0 min,  0.003 sec ( 18.049%)
 iterations                     ...        0 min,  0.007 sec ( 41.292%)
 molecular gradient             ...        0 min,  0.006 sec ( 36.889%)
 printout                       ...        0 min,  0.000 sec (  1.998%)

         :::::::::::::::::::::::::::::::::::::::::::::::::::::
         ::                     SUMMARY                     ::
         :::::::::::::::::::::::::::::::::::::::::::::::::::::
         :: total energy             -14.251420963084 Eh    ::
         :: gradient norm              0.000062275672 Eh/a0 ::
         :: HOMO-LUMO gap              0.945083783782 eV    ::
         ::.................................................::
         :: SCC energy               -14.534470193221 Eh    ::
         :: -> isotropic ES            0.093383102095 Eh    ::
         :: -> anisotropic ES          0.002373624225 Eh    ::
         :: -> anisotropic XC         -0.039943001020 Eh    ::
         :: -> dispersion             -0.012534903467 Eh    ::
         :: repulsion energy           0.282911237895 Eh    ::
         :: add. restraining           0.000000000000 Eh    ::
         :: total charge               0.000000000195 e     ::
         :::::::::::::::::::::::::::::::::::::::::::::::::::::


Property printout bound to 'properties.out'

           -------------------------------------------------
          | TOTAL ENERGY              -14.251420963084 Eh   |
          | GRADIENT NORM               0.000062275672 Eh/α |
          | HOMO-LUMO GAP               0.945083783782 eV   |
           -------------------------------------------------

------------------------------------------------------------------------
 * finished run on 2026/04/17 at 12:14:27.735     
------------------------------------------------------------------------
 total:
 * wall-time:     0 d,  0 h,  0 min,  0.030 sec
 *  cpu-time:     0 d,  0 h,  0 min,  0.030 sec
 * ratio c/w:     0.999 speedup
 SCF:
 * wall-time:     0 d,  0 h,  0 min,  0.017 sec
 *  cpu-time:     0 d,  0 h,  0 min,  0.017 sec
 * ratio c/w:     1.000 speedup


-------------------------   --------------------
FINAL SINGLE POINT ENERGY       -14.251420963080
-------------------------   --------------------


-------------
DIPOLE MOMENT
-------------
                                X             Y             Z
Total Dipole Moment    :      0.00000       0.00000       0.00000
                        -----------------------------------------
Magnitude (a.u.)       :      0.00000
Magnitude (Debye)      :      0.00000

                                *** OPTIMIZATION RUN DONE ***


--------------------------------
SUGGESTED CITATIONS FOR THIS RUN
--------------------------------

Below you find a list of papers that are relevant to this ORCA run
We neither can nor want to force you to cite these papers, but we appreciate if you do
You receive ORCA, which is the product of decades of hard work by many enthusiastic individuals, for free
The only thing we kindly ask in return is that you cite our papers,
We deeply appreciate it, if you show your appreciation for ORCA by not just citing the generic ORCA reference.

Please note that relegating all ORCA citations to the supporting information does *not* help us.
SI sections are not indexed - citations you put there will not count into any citation statistics
But we need these citations in order to attract the funding resources that allow us to do what we are doing

Therefore, if you are a happy ORCA user, please consider citing a few of the papers listed below in the main body of your paper

In addition to the list printed below, the program has created the file ring12_d2.10_m1.bibtex that contains the list in bibtex format
You can import this file easily into all common literature databanks and citation aid programs

It goes without saying that in many instances, there are alternative algorithms to achieve similar
results as the ones you have gotten from ORCA. It is, of course, also the case that in some instances
ORCA just re-implements algorithms worked out by others. We are fully aware of that and we are also
fully appreciative of our colleagues work. Hence this citation list should not be read as indicating
that the listed papers, which are focused on our own work, are the only ones worth citing. It simply
meant to make it easier for users to cite ORCA specific papers. It is not a substitute for doing your
own literature research and citing the relevant literature in a scientifically appropriate manner.

List of essential papers. We consider these as the minimum necessary citations

  1. Bannwarth, C.; Ehlert, S.; Grimme, S.
     GFN2-xTB—An Accurate and Broadly Parametrized Self-Consistent Tight-Binding Quantum Chemical Method with Multipole Electrostatics and Density-Dependent Dispersion Contributions
     J. Chem. Theory Comput. 2019 15(3), 1652-1671
     doi.org/10.1021/acs.jctc.8b01176
  2. Neese, F.
     Software update: the ORCA program system, version 6.0
     WIRES Comput. Molec. Sci. 2025 15(1), e70019
     doi.org/10.1002/wcms.70019

List of papers to cite with high priority. The work reported in these papers was absolutely
necessary for this run to complete.
Our perspective: the developers of density functionals and basis sets usually get cited in chemistry papers
Good! But without the algorithms to do something with them, the functionals or basis sets would not do anything.
Hence, in our opinion, the algorithm design and method developments papers are equally worthy of getting cited

  1. Bannwarth, C.; Caldeweyher, E.; Ehlert, S.; Hansen, A.; Pracht, P.; Seibert, J.; Spicher, S.; Grimme, S.
     Extended tight-binding quantum chemistry methods
     WIRES Comput. Molec. Sci. 2020 11(2), e1493
     doi.org/10.1002/wcms.1493

List of suggested additional citations. These are papers that are important in the 'surrounding' of 
of this run, or papers that preceded the highly important papers. If you like your results we are grateful for a citation.

  1. Neese, F.
     The ORCA program system
     WIRES Comput. Molec. Sci. 2012 2(1), 73-78
     doi.org/10.1002/wcms.81
  2. Neese, F.
     Software update: the ORCA program system, version 4.0
     WIRES Comput. Molec. Sci. 2018 8(1), 1-6
     doi.org/10.1002/wcms.1327
  3. Neese, F.; Wennmohs, F.; Becker, U.; Riplinger, C.
     The ORCA quantum chemistry program package
     J. Chem. Phys. 2020 152(22), 224108
     doi.org/10.1063/5.0004608
  4. Neese, F.
     Software update: The ORCA program system—Version 5.0
     WIRES Comput. Molec. Sci. 2022 12(1), e1606
     doi.org/10.1002/wcms.1606

List of optional additional citations

  1. Neese, F.
     Approximate second-order SCF convergence for spin unrestricted wavefunctions
     Chem. Phys. Lett. 2000 325(1-3), 93-98
     doi.org/10.1016/s0009-2614(00)00662-x

Timings for individual modules:

Sum of individual times          ...        0.517 sec (=   0.009 min)
Geometry relaxation              ...        0.038 sec (=   0.001 min)   7.3 %
XTB module                       ...        0.479 sec (=   0.008 min)  92.7 %
                             ****ORCA TERMINATED NORMALLY****
TOTAL RUN TIME: 0 days 0 hours 0 minutes 0 seconds 715 msec
