
                                 *****************
                                 * O   R   C   A *
                                 *****************

                                            #,                                       
                                            ###                                      
                                            ####                                     
                                            #####                                    
                                            ######                                   
                                           ########,                                 
                                     ,,################,,,,,                         
                               ,,#################################,,                 
                          ,,##########################################,,             
                       ,#########################################, ''#####,          
                    ,#############################################,,   '####,        
                  ,##################################################,,,,####,       
                ,###########''''           ''''###############################       
              ,#####''   ,,,,##########,,,,          '''####'''          '####       
            ,##' ,,,,###########################,,,                        '##       
           ' ,,###''''                  '''############,,,                           
         ,,##''                                '''############,,,,        ,,,,,,###''
      ,#''                                            '''#######################'''  
     '                                                          ''''####''''         
             ,#######,   #######,   ,#######,      ##                                
            ,#'     '#,  ##    ##  ,#'     '#,    #''#        ,####,    ,#,          
            ##       ##  ##   ,#'  ##            #'  '#       #'       ,# #          
            ##       ##  #######   ##           ,######,      #####,      #          
            '#,     ,#'  ##    ##  '#,     ,#' ,#      #,     #,   #      #          
             '#######'   ##     ##  '#######'  #'      '#     '####' #    #          



                #########################################################
                #                        -***-                          #
                #          Department of theory and spectroscopy        #
                #                                                       #
                #                      Frank Neese                      #
                #                                                       #
                #     Directorship, Architecture, Infrastructure        #
                #                    SHARK, DRIVERS                     #
                #        Core code/Algorithms in most modules           #
                #                                                       #
                #        Max Planck Institute fuer Kohlenforschung      #
                #                Kaiser Wilhelm Platz 1                 #
                #                 D-45470 Muelheim/Ruhr                 #
                #                      Germany                          #
                #                                                       #
                #                  All rights reserved                  #
                #                        -***-                          #
                #########################################################


                         Program Version 6.1.1  -  RELEASE   -
                                (GIT: $487d211c$)
                          ($2025-11-21 10:33:24 +0100$)
                                                                         
                                  - NO-DMRG VERSION -                    
                                                                         


 With contributions from (in alphabetic order):
[Max-Planck-Institut fuer Kohlenforschung]                               
  Daniel Aravena         : Magnetic Suceptibility                        
  Michael Atanasov       : Ab Initio Ligand Field Theory (pilot matlab implementation)
  Alexander A. Auer      : GIAO ZORA, VPT2 properties, NMR spectrum      
  Ute Becker             : All parallelization in ORCA, NUMFREQ, NUMCALC 
  Giovanni Bistoni       : ED, misc. LED, open-shell LED, HFLD           
  Dmytro Bykov           : pre 5.0 version of the SCF Hessian            
  Marcos Casanova-Páez   : Triplet and SCS-CIS(D). UHF-(DLPNO)-IP/EA/STEOM-CCSD. UHF-CVS-IP/STEOM-CCSD   
  Vijay G. Chilkuri      : MRCI spin determinant printing, contributions to CSF-ICE 
  Pauline Colinet        : FMM embedding                                 
  Dipayan Datta          : RHF DLPNO-CCSD density                        
  Achintya Kumar Dutta   : EOM-CC, STEOM-CC                              
  Nicolas Foglia         : Exact transition moments, OPA infrastructure, MCD improvements    
  Dmitry Ganyushin       : Spin-Orbit,Spin-Spin,Magnetic field MRCI      
  Miquel Garcia-Rates    : C-PCM and meta-GGA Hessian, CCSD/C-PCM, Gaussian charge scheme 
  Tiago L. C. Gouveia    : GS-ROHF, GS-ROCIS                             
  Yang Guo               : DLPNO-NEVPT2, F12-NEVPT2, CIM, IAO-localization        
  Andreas Hansen         : Spin unrestricted coupled pair/coupled cluster methods 
  Ingolf Harden          : AUTO-CI MPn and infrastructure                
  Benjamin Helmich-Paris : MC-RPA, TRAH-(SCF,CASSCF), AVAS, COSX integrals, SCF dyn. polar., MC-PDFT, srDFT 
  Lee Huntington         : MR-EOM, pCC                                   
  Robert Izsak           : Overlap fitted RIJCOSX, COSX-SCS-MP3, EOM     
  Riya Kayal             : Wick's Theorem for AUTO-CI, AUTO-CI UHF-CCSDT 
  Emily Kempfer          : AUTO-CI RHF CISDT and CCSDT, approximate NEVPT4
  Christian Kollmar      : KDIIS, OOCD, Brueckner-CCSD(T), CCSD density, CASPT2, CASPT2-K, improved NEVPT2 
  Axel Koslowski         : Symmetry handling                             
  Simone Kossmann        : meta-GGA functionals, TD-DFT gradient, OOMP2, (MP2 Hessian; deprecated post 5.0) 
  Lucas Lang             : DCDCAS, Hyperfine gauge corrections, ICE-SOC+SSC
  Marvin Lechner         : AUTO-CI (C++ implementation), FIC-MRCC        
  Spencer Leger          : CASSCF response                               
  Dagmar Lenk            : GEPOL surface, SMD, ORCA-2-JSON               
  Dimitrios Liakos       : Extrapolation schemes; Compound Job, Property file
  Dimitrios Manganas     : Further ROCIS development; embedding schemes. LFT, Crystal Embedding 
  Dimitrios Pantazis     : SARC Basis sets                               
  Anastasios Papadopoulos: AUTO-CI, single reference methods and gradients 
  Taras Petrenko         : pre 6.0 DFT Hessian and TD-DFT gradient,  ECA, NRVS 
  Petra Pikulova         : Analytic Raman intensities                    
  Peter Pinski           : DLPNO-MP2, DLPNO-MP2 Gradient                 
  Shashank Vittal Rao    : ES-AILFT, MagRelax                            
  Christoph Reimann      : Effective Core Potentials                     
  Marius Retegan         : Local ZFS, SOC                                
  Christoph Riplinger    : Optimizer, TS searches, QM/MM, DLPNO-CCSD(T), (RO)-DLPNO pert. Triples 
  Michael Roemelt        : Original ROCIS implementation, recursive CI coupling coefficients
  Masaaki Saitow         : Open-shell DLPNO-CCSD energy and density      
  Barbara Sandhoefer     : DKH picture change effects                    
  Yorick L. A. Schmerwitz: GMF and freeze-and-release deltaSCF, NEB S-IDPP initial path                    
  Kantharuban Sivalingam : CASSCF convergence/infrastructure, NEVPT2, NEVPT3, NEVPT4(SD), FIC-MRCI and CEPA variants
  Bernardo de Souza      : ESD, SOC TD-DFT                               
  Georgi L. Stoychev     : AutoAux, RI-MP2 NMR, DLPNO-MP2 response, X2C  
  Van Anh Tran           : RI-MP2 g-tensors                              
  Willem Van den Heuvel  : Paramagnetic NMR                              
  Zikuan Wang            : NOTCH, Electric field optimization            
  Frank Wennmohs         : Technical directorship and infrastructure     
  Hang Xu                : AUTO-CI-Response properties                   
                                                                         
[FACCTs GmbH]                                                            
  Markus Bursch, Nicolas Foglia, Miquel Garcia-Rates, Ingolf Harden, Hagen Neugebauer, Anastasios Papadopoulos, 
  Christoph Riplinger, Bernardo de Souza, Georgi L. Stoychev                                                    
                                                                 
  APM, various basis sets, CI-OPT, improved COSX, DLPNO-Multilevel,           
  DOCKER, DRACO, updates on ESD, Fragmentator, GOAT, IRC, LR-CPCM, L-BFGS, MBIS, meta-GGA TD-DFT gradient, ML-optimized integration grids, 
  MM, NACMEs, nearIR, NEB, NEB-TS, NL-DFT gradient (VV10), 2- and 3-layer-ONIOM, interface openCOSMO-RS, QMMM,   
  Crystal-QMMM, RESP, rigid body optimization, SF, symmetry and pop. for TD-DFT, various functionals, SOLVATOR                                   
                                                                         
[Other institutions]                                                     
  V. Asgeirsson          : NEB                                           
  Christoph Bannwarth    : sTDA-DFT, sTD-DFT, PBEh-3c, B97-3c, D3        
  Giovanni Bistoni       : ETS/NOCV, ADLD/ADEX, COVALED                  
  Martin Brehm           : Molecular dynamics                            
  Ronald Cardenas        : ETS/NOCV                                      
  Martina Colucci        : COVALED                                       
  Sebastian Ehlert       : rSCAN, r2SCAN, r2SCAN-3c, D4, dhf basis sets  
  Marvin Friede          : D4 for Fr, Ra, Ac-Lr                          
  Lars Goerigk           : TD-DFT with DH, B97 family of functionals     
  Stefan Grimme          : VdW corrections, initial TS optimization, DFT functionals, gCP, sTDA/sTD-DF 
  Waldemar Hujo          : DFT-NL                                        
  H. Jonsson             : NEB                                           
  Holger Kruse           : gCP                                           
  Marcel Mueller         : wB97X-3c, vDZP basis set                      
  Hagen Neugebauer       : wr2SCAN, Native XTB                           
  Gianluca Regni         : ADLD/ADEX                                     
  Tobias Risthaus        : pre 6.0 range-separated hybrid DFT and stability analysis
  Lukas Wittmann         : regularized MP2, r2SCAN double-hybrids, wr2SCAN        
                                                                         
We gratefully acknowledge several colleagues who have allowed us to      
interface, adapt or use parts of their codes:                            
  Ed Valeev, F. Pavosevic, A. Kumar             : LibInt (2-el integral package), F12 methods 
  Garnet Chan, S. Sharma, J. Yang, R. Olivares  : DMRG                   
  Ulf Ekstrom                                   : XCFun DFT Library      
  Mihaly Kallay                                 : mrcc  (arbitrary order and MRCC methods)
  Frank Weinhold                                : gennbo (NPA and NBO analysis)           
  Simon Mueller                                 : openCOSMO-RS                            
  Christopher J. Cramer and Donald G. Truhlar   : smd solvation model                     
  S Lehtola, MJT Oliveira, MAL Marques          : LibXC Library                           
  Liviu Ungur et al                             : ANISO software                          


 Your calculation uses the libint2 library for the computation of 2-el integrals
 For citations please refer to: http://libint.valeyev.net

 Your ORCA version has been built with support for libXC version: 7.0.0
 For citations please refer to: https://libxc.gitlab.io

 This ORCA versions uses:
   CBLAS   interface :  Fast vector & matrix operations
   LAPACKE interface :  Fast linear algebra routines
   SCALAPACK package :  Parallel linear algebra routines
   Shared memory     :  Shared parallel matrices
   BLAS/LAPACK       :  OpenBLAS 0.3.29  USE64BITINT DYNAMIC_ARCH NO_AFFINITY Zen SINGLE_THREADED
        Core in use  :  Zen
   Copyright (c) 2011-2014, The OpenBLAS Project


  ***********************************
  * Starting time: Fri Apr 17 12:14:27 2026
  * Host name:     vmi3233575
  * Process ID:    335285
  * Working dir.:  /root/orca_b12_vps_pack/jobs/01_xtb/mult_1
  ***********************************

NOTE: MaxCore=500 MB was set to SCF,MP2,MDCI,CIPSI,MRCI,RASCI and CIS
      => If you want to overwrite this, your respective input block should be placed after the MaxCore statement


***************************************
The coordinates will be read from file: ../../../starts/ring12_d1.90.xyz
***************************************


Your calculation utilizes the semiempirical GFN2-xTB method
Please cite in your paper:
Bannwarth, C.; Ehlert S.; Grimme, S. J. Chem. Theory Comput. 2019, 15, 1652.
   

================================================================================

================================================================================
                                        WARNINGS
                       Please study these warnings very carefully!
================================================================================


WARNING: Geometry Optimization
  ===> : Switching off AutoStart
         For restart on a previous wavefunction, please use MOREAD

WARNING: Found dipole moment calculation with XTB calculation
  ===> : Switching off dipole moment calculation

Environment variable XTBEXE for xtb has been set!

================================================================================
                                       INPUT FILE
================================================================================
NAME = ring12_d1.90_m1.inp
|  1> ! GFN2-xTB TightSCF TightOpt
|  2> 
|  3> %pal
|  4>   nprocs 1
|  5> end
|  6> 
|  7> %maxcore 500
|  8> 
|  9> * xyzfile 0 1 ../../../starts/ring12_d1.90.xyz
| 10> 
| 11>                          ****END OF INPUT****
================================================================================

                       *****************************
                       * Geometry Optimization Run *
                       *****************************

Geometry optimization settings:
Update method            Update   .... BFGS
Choice of coordinates    CoordSys .... (2022) Redundant Internals
Initial Hessian          InHess   .... Almloef's Model
Max. no of cycles        MaxIter  .... 50

Convergence Tolerances:
Energy Change            TolE     ....  1.0000e-06 Eh
Max. Gradient            TolMAXG  ....  1.0000e-04 Eh/bohr
RMS Gradient             TolRMSG  ....  3.0000e-05 Eh/bohr
Max. Displacement        TolMAXD  ....  1.0000e-03 bohr
RMS Displacement         TolRMSD  ....  6.0000e-04 bohr
Strict Convergence                .... False

------------------------------------------------------------------------------
                        ORCA OPTIMIZATION COORDINATE SETUP
------------------------------------------------------------------------------

The optimization will be done in redundant internal coordinates (2022)
Making redundant internal coordinates   ...  (2022 redundants) done
Evaluating the initial hessian          ...  (Almloef) done
Evaluating the coordinates              ...  done
Calculating the B-matrix                .... done
Calculating the G-matrix                .... done
The number of degrees of freedom        ....   36

    -----------------------------------------------------------------
                    Redundant Internal Coordinates


    -----------------------------------------------------------------
         Definition                    Initial Value    Approx d2E/dq
    -----------------------------------------------------------------
      1. B(B   1,B   0)                  1.9000         0.128736   
      2. B(B   2,B   1)                  1.9000         0.128736   
      3. B(B   3,B   2)                  1.9000         0.128736   
      4. B(B   4,B   3)                  1.9000         0.128736   
      5. B(B   5,B   4)                  1.9000         0.128736   
      6. B(B   6,B   5)                  1.9000         0.128736   
      7. B(B   7,B   6)                  1.9000         0.128736   
      8. B(B   8,B   7)                  1.9000         0.128736   
      9. B(B   9,B   8)                  1.9000         0.128736   
     10. B(B  10,B   9)                  1.9000         0.128736   
     11. B(B  11,B  10)                  1.9000         0.128736   
     12. B(B  11,B   0)                  1.9000         0.128736   
     13. A(B   1,B   0,B  11)          150.0000         0.265742   
     14. A(B   0,B   1,B   2)          150.0000         0.265742   
     15. A(B   1,B   2,B   3)          150.0000         0.265742   
     16. A(B   2,B   3,B   4)          150.0000         0.265742   
     17. A(B   3,B   4,B   5)          150.0000         0.265742   
     18. A(B   4,B   5,B   6)          150.0000         0.265742   
     19. A(B   5,B   6,B   7)          150.0000         0.265742   
     20. A(B   6,B   7,B   8)          150.0000         0.265742   
     21. A(B   7,B   8,B   9)          150.0000         0.265742   
     22. A(B   8,B   9,B  10)          150.0000         0.265742   
     23. A(B   9,B  10,B  11)          150.0000         0.265742   
     24. A(B   0,B  11,B  10)          150.0000         0.265742   
     25. D(B   2,B   1,B   0,B  11)      0.0000         0.010000   
     26. D(B   3,B   2,B   1,B   0)      0.0000         0.010000   
     27. D(B   4,B   3,B   2,B   1)      0.0000         0.010000   
     28. D(B   5,B   4,B   3,B   2)      0.0000         0.010000   
     29. D(B   6,B   5,B   4,B   3)      0.0000         0.010000   
     30. D(B   7,B   6,B   5,B   4)      0.0000         0.010000   
     31. D(B   8,B   7,B   6,B   5)      0.0000         0.010000   
     32. D(B   9,B   8,B   7,B   6)      0.0000         0.010000   
     33. D(B  10,B   9,B   8,B   7)      0.0000         0.010000   
     34. D(B  11,B  10,B   9,B   8)      0.0000         0.010000   
     35. D(B   0,B  11,B  10,B   9)      0.0000         0.010000   
     36. D(B  10,B  11,B   0,B   1)      0.0000         0.010000   
    -----------------------------------------------------------------

Number of atoms                         .... 12
Number of degrees of freedom            .... 36


         *************************************************************
         *                GEOMETRY OPTIMIZATION CYCLE   1            *
         *************************************************************
---------------------------------
CARTESIAN COORDINATES (ANGSTROEM)
---------------------------------
  B     3.670518   -0.000000    0.000000
  B     3.178762    1.835259    0.000000
  B     1.835259    3.178762    0.000000
  B     0.000000    3.670518    0.000000
  B    -1.835259    3.178762    0.000000
  B    -3.178762    1.835259    0.000000
  B    -3.670518    0.000000    0.000000
  B    -3.178762   -1.835259    0.000000
  B    -1.835259   -3.178762    0.000000
  B    -0.000000   -3.670518    0.000000
  B     1.835259   -3.178762    0.000000
  B     3.178762   -1.835259    0.000000

----------------------------
CARTESIAN COORDINATES (A.U.)
----------------------------
  NO LB    ZA    FRAG    MASS        X           Y           Z
   0 B   5.0000    0    10.810    6.936274   -0.000000    0.000000
   1 B   5.0000    0    10.810    6.006990    3.468137    0.000000
   2 B   5.0000    0    10.810    3.468137    6.006990    0.000000
   3 B   5.0000    0    10.810    0.000000    6.936274    0.000000
   4 B   5.0000    0    10.810   -3.468137    6.006990    0.000000
   5 B   5.0000    0    10.810   -6.006990    3.468137    0.000000
   6 B   5.0000    0    10.810   -6.936274    0.000000    0.000000
   7 B   5.0000    0    10.810   -6.006990   -3.468137    0.000000
   8 B   5.0000    0    10.810   -3.468137   -6.006990    0.000000
   9 B   5.0000    0    10.810   -0.000000   -6.936274    0.000000
  10 B   5.0000    0    10.810    3.468137   -6.006990    0.000000
  11 B   5.0000    0    10.810    6.006990   -3.468137    0.000000

      -----------------------------------------------------------      
     |                   =====================                   |     
     |                           x T B                           |     
     |                   =====================                   |     
     |                         S. Grimme                         |     
     |          Mulliken Center for Theoretical Chemistry        |     
     |                    University of Bonn                     |     
      -----------------------------------------------------------      

   * xtb version 6.6.1 (unknown) compiled by 'builduser@buildhost' on 2023-08-07

   xtb is free software: you can redistribute it and/or modify it under
   the terms of the GNU Lesser General Public License as published by
   the Free Software Foundation, either version 3 of the License, or
   (at your option) any later version.
   
   xtb is distributed in the hope that it will be useful,
   but WITHOUT ANY WARRANTY; without even the implied warranty of
   MERCHANTABILITY or FITNESS FOR A PARTICULAR PURPOSE.  See the
   GNU Lesser General Public License for more details.
   
   Cite this work as:
   * C. Bannwarth, E. Caldeweyher, S. Ehlert, A. Hansen, P. Pracht,
     J. Seibert, S. Spicher, S. Grimme, WIREs Comput. Mol. Sci., 2020, 11,
     e01493. DOI: 10.1002/wcms.1493
   
   for GFN2-xTB:
   * C. Bannwarth, S. Ehlert and S. Grimme., J. Chem. Theory Comput., 2019,
     15, 1652-1671. DOI: 10.1021/acs.jctc.8b01176
   for GFN1-xTB:
   * S. Grimme, C. Bannwarth, P. Shushkov, J. Chem. Theory Comput., 2017,
     13, 1989-2009. DOI: 10.1021/acs.jctc.7b00118
   for GFN0-xTB:
   * P. Pracht, E. Caldeweyher, S. Ehlert, S. Grimme, ChemRxiv, 2019, preprint.
     DOI: 10.26434/chemrxiv.8326202.v1
   for GFN-FF:
   * S. Spicher and S. Grimme, Angew. Chem. Int. Ed., 2020, 59, 15665-15673.
     DOI: 10.1002/anie.202004239
   
   for ALPB and GBSA implicit solvation:
   * S. Ehlert, M. Stahn, S. Spicher, S. Grimme, J. Chem. Theory Comput.,
     2021, 17, 4250-4261. DOI: 10.1021/acs.jctc.1c00471
   
   for DFT-D4:
   * E. Caldeweyher, C. Bannwarth and S. Grimme, J. Chem. Phys., 2017,
     147, 034112. DOI: 10.1063/1.4993215
   * E. Caldeweyher, S. Ehlert, A. Hansen, H. Neugebauer, S. Spicher,
     C. Bannwarth and S. Grimme, J. Chem. Phys., 2019, 150, 154122.
     DOI: 10.1063/1.5090222
   * E. Caldeweyher, J.-M. Mewes, S. Ehlert and S. Grimme, Phys. Chem. Chem. Phys.
     2020, 22, 8499-8512. DOI: 10.1039/D0CP00502A
   
   for sTDA-xTB:
   * S. Grimme and C. Bannwarth, J. Chem. Phys., 2016, 145, 054103.
     DOI: 10.1063/1.4959605
   
   in the mass-spec context:
   * V. Asgeirsson, C. Bauer and S. Grimme, Chem. Sci., 2017, 8, 4879.
     DOI: 10.1039/c7sc00601b
   * J. Koopman and S. Grimme, ACS Omega 2019, 4, 12, 15120-15133.
     DOI: 10.1021/acsomega.9b02011
   
   for metadynamics refer to:
   * S. Grimme, J. Chem. Theory Comput., 2019, 155, 2847-2862
     DOI: 10.1021/acs.jctc.9b00143
   
   for SPH calculations refer to:
   * S. Spicher and S. Grimme, J. Chem. Theory Comput., 2021, 17, 1701-1714
     DOI: 10.1021/acs.jctc.0c01306
   
   with help from (in alphabetical order)
   P. Atkinson, C. Bannwarth, F. Bohle, G. Brandenburg, E. Caldeweyher
   M. Checinski, S. Dohm, S. Ehlert, S. Ehrlich, I. Gerasimov, C. Hölzer
   A. Katbashev, J. Koopman, C. Lavigne, S. Lehtola, F. März, M. Müller,
   F. Musil, H. Neugebauer, J. Pisarek, C. Plett, P. Pracht, F. Pultar,
   J. Seibert, P. Shushkov, S. Spicher, M. Stahn, M. Steiner, T. Strunk,
   J. Stückrath, T. Rose, and J. Unsleber
   
 * started run on 2026/04/17 at 12:14:27.260     

           -------------------------------------------------
          |                Calculation Setup                |
           -------------------------------------------------

          program call               : /usr/bin/xtb ring12_d1.90_m1_XTB.xyz --grad -c 0 -u 0 -P 1 --namespace ring12_d1.90_m1 --input ring12_d1.90_m1_XTB.input.tmp --acc 0.200000
          calculation namespace      : ring12_d1.90_m1
          coordinate file            : ring12_d1.90_m1_XTB.xyz
          omp threads                :                     1

   ID    Z sym.   atoms
    1    5 B      1-12

           -------------------------------------------------
          |                 G F N 2 - x T B                 |
           -------------------------------------------------

        Reference                      10.1021/acs.jctc.8b01176
      * Hamiltonian:
        H0-scaling (s, p, d)           1.850000    2.230000    2.230000
        zeta-weighting                 0.500000
      * Dispersion:
        s8                             2.700000
        a1                             0.520000
        a2                             5.000000
        s9                             5.000000
      * Repulsion:
        kExp                           1.500000    1.000000
        rExp                           1.000000
      * Coulomb:
        alpha                          2.000000
        third order                    shell-resolved
        anisotropic                    true
        a3                             3.000000
        a5                             4.000000
        cn-shift                       1.200000
        cn-exp                         4.000000
        max-rad                        5.000000


          ...................................................
          :                      SETUP                      :
          :.................................................:
          :  # basis functions                  48          :
          :  # atomic orbitals                  48          :
          :  # shells                           24          :
          :  # electrons                        36          :
          :  max. iterations                   250          :
          :  Hamiltonian                  GFN2-xTB          :
          :  restarted?                      false          :
          :  GBSA solvation                  false          :
          :  PC potential                    false          :
          :  electronic temp.          300.0000000     K    :
          :  accuracy                    0.2000000          :
          :  -> integral cutoff          0.3198970E+02      :
          :  -> integral neglect         0.2000000E-08      :
          :  -> SCF convergence          0.2000000E-06 Eh   :
          :  -> wf. convergence          0.2000000E-04 e    :
          :  Broyden damping             0.4000000          :
          ...................................................

 iter      E             dE          RMSdq      gap      omega  full diag
   1    -13.6509487 -0.136509E+02  0.319E+01    0.55       0.0  T
   2    -13.6513387 -0.389981E-03  0.192E+01    0.57       1.0  T
   3    -13.6568378 -0.549913E-02  0.132E+00    0.62       1.0  T
   4    -13.6569426 -0.104759E-03  0.215E-01    0.62       1.0  T
   5    -13.6569432 -0.651443E-06  0.137E-01    0.62       1.0  T
   6    -13.6569440 -0.759436E-06  0.616E-03    0.62       4.7  T
   7    -13.6569440  0.268079E-07  0.250E-03    0.62      11.6  T
   8    -13.6569440 -0.357673E-07  0.496E-04    0.62      58.2  T
   9    -13.6569440 -0.248352E-10  0.337E-05    0.62     856.9  T
  10    -13.6569440  0.100647E-09  0.444E-05    0.62     650.3  T

   *** convergence criteria satisfied after 10 iterations ***

         #    Occupation            Energy/Eh            Energy/eV
      -------------------------------------------------------------
         1        2.0000           -0.3702507             -10.0750
       ...           ...                  ...                  ...
        12        2.0000           -0.3001321              -8.1670
        13        2.0000           -0.2535167              -6.8985
        14        2.0000           -0.2515488              -6.8450
        15        2.0000           -0.2453983              -6.6776
        16        2.0000           -0.2453983              -6.6776
        17        2.0000           -0.2437841              -6.6337
        18        2.0000           -0.2437841              -6.6337 (HOMO)
        19        0.0000           -0.2210598              -6.0153 (LUMO)
        20        0.0000           -0.2210598              -6.0153
        21        0.0000           -0.2198334              -5.9820
        22        0.0000           -0.2198334              -5.9820
        23                         -0.1816392              -4.9427
       ...                                ...                  ...
        48                          0.3289141               8.9502
      -------------------------------------------------------------
                  HL-Gap            0.0227243 Eh            0.6184 eV
             Fermi-level           -0.2324575 Eh           -6.3255 eV

 SCC (total)                   0 d,  0 h,  0 min,  0.020 sec
 SCC setup                      ...        0 min,  0.000 sec (  1.050%)
 Dispersion                     ...        0 min,  0.000 sec (  0.453%)
 classical contributions        ...        0 min,  0.000 sec (  0.166%)
 integral evaluation            ...        0 min,  0.003 sec ( 14.650%)
 iterations                     ...        0 min,  0.011 sec ( 55.758%)
 molecular gradient             ...        0 min,  0.005 sec ( 26.075%)
 printout                       ...        0 min,  0.000 sec (  1.716%)

         :::::::::::::::::::::::::::::::::::::::::::::::::::::
         ::                     SUMMARY                     ::
         :::::::::::::::::::::::::::::::::::::::::::::::::::::
         :: total energy             -13.641736875405 Eh    ::
         :: gradient norm              0.175250513558 Eh/a0 ::
         :: HOMO-LUMO gap              0.618360117284 eV    ::
         ::.................................................::
         :: SCC energy               -13.656943988761 Eh    ::
         :: -> isotropic ES            0.089845953252 Eh    ::
         :: -> anisotropic ES          0.005141128490 Eh    ::
         :: -> anisotropic XC         -0.072384967687 Eh    ::
         :: -> dispersion             -0.009568109769 Eh    ::
         :: repulsion energy           0.015081739570 Eh    ::
         :: add. restraining           0.000000000000 Eh    ::
         :: total charge              -0.000000001099 e     ::
         :::::::::::::::::::::::::::::::::::::::::::::::::::::


Property printout bound to 'properties.out'

           -------------------------------------------------
          | TOTAL ENERGY              -13.641736875405 Eh   |
          | GRADIENT NORM               0.175250513558 Eh/α |
          | HOMO-LUMO GAP               0.618360117284 eV   |
           -------------------------------------------------

------------------------------------------------------------------------
 * finished run on 2026/04/17 at 12:14:27.292     
------------------------------------------------------------------------
 total:
 * wall-time:     0 d,  0 h,  0 min,  0.032 sec
 *  cpu-time:     0 d,  0 h,  0 min,  0.032 sec
 * ratio c/w:     0.999 speedup
 SCF:
 * wall-time:     0 d,  0 h,  0 min,  0.020 sec
 *  cpu-time:     0 d,  0 h,  0 min,  0.020 sec
 * ratio c/w:     1.000 speedup


-------------------------   --------------------
FINAL SINGLE POINT ENERGY       -13.641736875400
-------------------------   --------------------


-------------
DIPOLE MOMENT
-------------
                                X             Y             Z
Total Dipole Moment    :     -0.00000      -0.00000      -0.00000
                        -----------------------------------------
Magnitude (a.u.)       :      0.00000
Magnitude (Debye)      :      0.00000


------------------
CARTESIAN GRADIENT
------------------

   1   B   :    0.050590546   -0.000000042    0.000000000
   2   B   :    0.043812711    0.025295275   -0.000000000
   3   B   :    0.025295260    0.043812715   -0.000000000
   4   B   :   -0.000000056    0.050590534   -0.000000000
   5   B   :   -0.025295351    0.043812583    0.000000000
   6   B   :   -0.043812654    0.025295086    0.000000000
   7   B   :   -0.050590367   -0.000000037    0.000000000
   8   B   :   -0.043812566   -0.025295147   -0.000000000
   9   B   :   -0.025295219   -0.043812547    0.000000000
  10   B   :   -0.000000051   -0.050590410   -0.000000000
  11   B   :    0.025295131   -0.043812672    0.000000000
  12   B   :    0.043812616   -0.025295338   -0.000000000

Difference to translation invariance:
           :    0.0000000000   -0.0000000000    0.0000000000

Difference to rotation invariance:
           :    0.0000000000   -0.0000000000   -0.0000000000

Norm of the Cartesian gradient     ...    0.1752505136
RMS gradient                       ...    0.0292084189
MAX gradient                       ...    0.0505905456
------------------------------------------------------------------------------
                         ORCA GEOMETRY RELAXATION STEP
------------------------------------------------------------------------------

Reading the OPT-File                    .... done
Getting information on internals        .... done
Copying old internal coords+grads       .... done
Making the new internal coordinates     .... (2022 redundants) done
Validating the new internal coordinates .... (2022 redundants) done
Calculating the B-matrix                .... done
Calculating the G,G- and P matrices     .... done
Transforming gradient to internals      .... done
Projecting the internal gradient        .... done
Number of atoms                         ....  12
Number of internal coordinates          ....  36
Current Energy                          ....   -13.641736875 Eh
Current gradient norm                   ....     0.175250514 Eh/bohr
Maximum allowed component of the step   ....  0.300
Current trust radius                    ....  0.300
Evaluating the initial hessian          ....  (Almloef) done
Projecting the Hessian                  .... done
Forming the augmented Hessian           .... done
Diagonalizing the augmented Hessian     .... done
Last element of RFO vector              ....  0.770317669
Lowest eigenvalues of augmented Hessian:
 -0.280254509  0.010000000  0.010000000  0.010000000  0.010000000
Length of the computed step             ....  0.827788781
Warning: the length of the step is outside the trust region - taking restricted step instead
The input lambda is                     ....     0.009000
   iter:   5  x=   -0.646956  g=    1.277025 f(x)=     0.270193
   iter:  10  x=   -0.999790  g=    0.159501 f(x)=     0.000000
The output lambda is                    ....    -0.999790 (12 iterations)
The final length of the internal step   ....  0.300000000
Converting the step to Cartesian space:
 Initial RMS(Int)=    0.0500000000
Transforming coordinates:
 Iter   0:  RMS(Cart)=    0.0965925826 RMS(Int)=    0.0500000000
done
Storing new coordinates                 .... done

                                .--------------------.
          ----------------------|Geometry convergence|-------------------------
          Item                value                   Tolerance       Converged
          ---------------------------------------------------------------------
          RMS gradient        0.0564263324            0.0000300000      NO
          MAX gradient        0.0977334516            0.0001000000      NO
          RMS step            0.0500000000            0.0006000000      NO
          MAX step            0.0866026968            0.0010000000      NO
          -------------------------------------------------------------------------
          ........................................................
          Max(Bonds)      0.0458      Max(Angles)    0.00
          Max(Dihed)        0.00      Max(Improp)    0.00
          ---------------------------------------------------------------------

The optimization has not yet converged - more geometry cycles are needed


    ---------------------------------------------------------------------------
                         Redundant Internal Coordinates
                            (Angstroem and degrees)

        Definition                    Value    dE/dq     Step     New-Value
    ----------------------------------------------------------------------------
     1. B(B   1,B   0)                1.9000  0.097733 -0.0458    1.8542   
     2. B(B   2,B   1)                1.9000  0.097733 -0.0458    1.8542   
     3. B(B   3,B   2)                1.9000  0.097733 -0.0458    1.8542   
     4. B(B   4,B   3)                1.9000  0.097733 -0.0458    1.8542   
     5. B(B   5,B   4)                1.9000  0.097733 -0.0458    1.8542   
     6. B(B   6,B   5)                1.9000  0.097733 -0.0458    1.8542   
     7. B(B   7,B   6)                1.9000  0.097733 -0.0458    1.8542   
     8. B(B   8,B   7)                1.9000  0.097733 -0.0458    1.8542   
     9. B(B   9,B   8)                1.9000  0.097733 -0.0458    1.8542   
    10. B(B  10,B   9)                1.9000  0.097733 -0.0458    1.8542   
    11. B(B  11,B  10)                1.9000  0.097733 -0.0458    1.8542   
    12. B(B  11,B   0)                1.9000  0.097733 -0.0458    1.8542   
    13. A(B   1,B   0,B  11)          150.00 -0.000000    0.00    150.00   
    14. A(B   0,B   1,B   2)          150.00 -0.000000    0.00    150.00   
    15. A(B   1,B   2,B   3)          150.00 -0.000000    0.00    150.00   
    16. A(B   2,B   3,B   4)          150.00 -0.000000    0.00    150.00   
    17. A(B   3,B   4,B   5)          150.00 -0.000000    0.00    150.00   
    18. A(B   4,B   5,B   6)          150.00  0.000000   -0.00    150.00   
    19. A(B   5,B   6,B   7)          150.00  0.000000   -0.00    150.00   
    20. A(B   6,B   7,B   8)          150.00  0.000000   -0.00    150.00   
    21. A(B   7,B   8,B   9)          150.00  0.000000   -0.00    150.00   
    22. A(B   8,B   9,B  10)          150.00  0.000000   -0.00    150.00   
    23. A(B   9,B  10,B  11)          150.00  0.000000   -0.00    150.00   
    24. A(B   0,B  11,B  10)          150.00 -0.000000    0.00    150.00   
    25. D(B   2,B   1,B   0,B  11)      0.00  0.000000    0.00      0.00   
    26. D(B   3,B   2,B   1,B   0)      0.00 -0.000000    0.00      0.00   
    27. D(B   4,B   3,B   2,B   1)      0.00  0.000000   -0.00     -0.00   
    28. D(B   5,B   4,B   3,B   2)      0.00  0.000000   -0.00     -0.00   
    29. D(B   6,B   5,B   4,B   3)      0.00  0.000000    0.00      0.00   
    30. D(B   7,B   6,B   5,B   4)      0.00  0.000000    0.00      0.00   
    31. D(B   8,B   7,B   6,B   5)      0.00 -0.000000    0.00      0.00   
    32. D(B   9,B   8,B   7,B   6)      0.00 -0.000000    0.00      0.00   
    33. D(B  10,B   9,B   8,B   7)      0.00 -0.000000    0.00      0.00   
    34. D(B  11,B  10,B   9,B   8)      0.00  0.000000    0.00      0.00   
    35. D(B   0,B  11,B  10,B   9)      0.00  0.000000   -0.00     -0.00   
    36. D(B  10,B  11,B   0,B   1)      0.00  0.000000   -0.00     -0.00   
    ----------------------------------------------------------------------------

Geometry step timings:
Preparation and reading OPT file:      0.000 s ( 2.257 %)
Internal coordinates            :      0.000 s ( 1.720 %)
B/P matrices and projection     :      0.000 s (22.192 %)
Hessian update/contruction      :      0.000 s (15.798 %)
Making the step                 :      0.000 s (25.363 %)
Converting the step to Cartesian:      0.000 s ( 2.740 %)
Storing new data                :      0.000 s ( 3.815 %)
Checking convergence            :      0.000 s ( 2.364 %)
Final printing                  :      0.000 s (23.536 %)
Total time                      :      0.002 s

Time for energy+gradient        :      0.053 s
Time for complete geometry iter :      0.056 s

         *************************************************************
         *                GEOMETRY OPTIMIZATION CYCLE   2            *
         *************************************************************
---------------------------------
CARTESIAN COORDINATES (ANGSTROEM)
---------------------------------
  B     3.581985    0.000000    0.000000
  B     3.102090    1.790992    0.000000
  B     1.790993    3.102090   -0.000000
  B     0.000000    3.581985   -0.000000
  B    -1.790992    3.102090    0.000000
  B    -3.102090    1.790993    0.000000
  B    -3.581985    0.000000    0.000000
  B    -3.102090   -1.790993    0.000000
  B    -1.790993   -3.102090   -0.000000
  B     0.000000   -3.581985   -0.000000
  B     1.790993   -3.102090   -0.000000
  B     3.102090   -1.790992    0.000000

----------------------------
CARTESIAN COORDINATES (A.U.)
----------------------------
  NO LB    ZA    FRAG    MASS        X           Y           Z
   0 B   5.0000    0    10.810    6.768971    0.000000    0.000000
   1 B   5.0000    0    10.810    5.862101    3.384485    0.000000
   2 B   5.0000    0    10.810    3.384485    5.862101   -0.000000
   3 B   5.0000    0    10.810    0.000000    6.768971   -0.000000
   4 B   5.0000    0    10.810   -3.384485    5.862101    0.000000
   5 B   5.0000    0    10.810   -5.862101    3.384486    0.000000
   6 B   5.0000    0    10.810   -6.768971    0.000000    0.000000
   7 B   5.0000    0    10.810   -5.862101   -3.384485    0.000000
   8 B   5.0000    0    10.810   -3.384485   -5.862101   -0.000000
   9 B   5.0000    0    10.810    0.000000   -6.768971   -0.000000
  10 B   5.0000    0    10.810    3.384486   -5.862101   -0.000000
  11 B   5.0000    0    10.810    5.862101   -3.384485    0.000000

      -----------------------------------------------------------      
     |                   =====================                   |     
     |                           x T B                           |     
     |                   =====================                   |     
     |                         S. Grimme                         |     
     |          Mulliken Center for Theoretical Chemistry        |     
     |                    University of Bonn                     |     
      -----------------------------------------------------------      

   * xtb version 6.6.1 (unknown) compiled by 'builduser@buildhost' on 2023-08-07

   xtb is free software: you can redistribute it and/or modify it under
   the terms of the GNU Lesser General Public License as published by
   the Free Software Foundation, either version 3 of the License, or
   (at your option) any later version.
   
   xtb is distributed in the hope that it will be useful,
   but WITHOUT ANY WARRANTY; without even the implied warranty of
   MERCHANTABILITY or FITNESS FOR A PARTICULAR PURPOSE.  See the
   GNU Lesser General Public License for more details.
   
   Cite this work as:
   * C. Bannwarth, E. Caldeweyher, S. Ehlert, A. Hansen, P. Pracht,
     J. Seibert, S. Spicher, S. Grimme, WIREs Comput. Mol. Sci., 2020, 11,
     e01493. DOI: 10.1002/wcms.1493
   
   for GFN2-xTB:
   * C. Bannwarth, S. Ehlert and S. Grimme., J. Chem. Theory Comput., 2019,
     15, 1652-1671. DOI: 10.1021/acs.jctc.8b01176
   for GFN1-xTB:
   * S. Grimme, C. Bannwarth, P. Shushkov, J. Chem. Theory Comput., 2017,
     13, 1989-2009. DOI: 10.1021/acs.jctc.7b00118
   for GFN0-xTB:
   * P. Pracht, E. Caldeweyher, S. Ehlert, S. Grimme, ChemRxiv, 2019, preprint.
     DOI: 10.26434/chemrxiv.8326202.v1
   for GFN-FF:
   * S. Spicher and S. Grimme, Angew. Chem. Int. Ed., 2020, 59, 15665-15673.
     DOI: 10.1002/anie.202004239
   
   for ALPB and GBSA implicit solvation:
   * S. Ehlert, M. Stahn, S. Spicher, S. Grimme, J. Chem. Theory Comput.,
     2021, 17, 4250-4261. DOI: 10.1021/acs.jctc.1c00471
   
   for DFT-D4:
   * E. Caldeweyher, C. Bannwarth and S. Grimme, J. Chem. Phys., 2017,
     147, 034112. DOI: 10.1063/1.4993215
   * E. Caldeweyher, S. Ehlert, A. Hansen, H. Neugebauer, S. Spicher,
     C. Bannwarth and S. Grimme, J. Chem. Phys., 2019, 150, 154122.
     DOI: 10.1063/1.5090222
   * E. Caldeweyher, J.-M. Mewes, S. Ehlert and S. Grimme, Phys. Chem. Chem. Phys.
     2020, 22, 8499-8512. DOI: 10.1039/D0CP00502A
   
   for sTDA-xTB:
   * S. Grimme and C. Bannwarth, J. Chem. Phys., 2016, 145, 054103.
     DOI: 10.1063/1.4959605
   
   in the mass-spec context:
   * V. Asgeirsson, C. Bauer and S. Grimme, Chem. Sci., 2017, 8, 4879.
     DOI: 10.1039/c7sc00601b
   * J. Koopman and S. Grimme, ACS Omega 2019, 4, 12, 15120-15133.
     DOI: 10.1021/acsomega.9b02011
   
   for metadynamics refer to:
   * S. Grimme, J. Chem. Theory Comput., 2019, 155, 2847-2862
     DOI: 10.1021/acs.jctc.9b00143
   
   for SPH calculations refer to:
   * S. Spicher and S. Grimme, J. Chem. Theory Comput., 2021, 17, 1701-1714
     DOI: 10.1021/acs.jctc.0c01306
   
   with help from (in alphabetical order)
   P. Atkinson, C. Bannwarth, F. Bohle, G. Brandenburg, E. Caldeweyher
   M. Checinski, S. Dohm, S. Ehlert, S. Ehrlich, I. Gerasimov, C. Hölzer
   A. Katbashev, J. Koopman, C. Lavigne, S. Lehtola, F. März, M. Müller,
   F. Musil, H. Neugebauer, J. Pisarek, C. Plett, P. Pracht, F. Pultar,
   J. Seibert, P. Shushkov, S. Spicher, M. Stahn, M. Steiner, T. Strunk,
   J. Stückrath, T. Rose, and J. Unsleber
   
 * started run on 2026/04/17 at 12:14:27.309     

           -------------------------------------------------
          |                Calculation Setup                |
           -------------------------------------------------

          program call               : /usr/bin/xtb ring12_d1.90_m1_XTB.xyz --grad -c 0 -u 0 -P 1 --namespace ring12_d1.90_m1 --input ring12_d1.90_m1_XTB.input.tmp --acc 0.200000
          calculation namespace      : ring12_d1.90_m1
          coordinate file            : ring12_d1.90_m1_XTB.xyz
          omp threads                :                     1

   ID    Z sym.   atoms
    1    5 B      1-12

           -------------------------------------------------
          |                 G F N 2 - x T B                 |
           -------------------------------------------------

        Reference                      10.1021/acs.jctc.8b01176
      * Hamiltonian:
        H0-scaling (s, p, d)           1.850000    2.230000    2.230000
        zeta-weighting                 0.500000
      * Dispersion:
        s8                             2.700000
        a1                             0.520000
        a2                             5.000000
        s9                             5.000000
      * Repulsion:
        kExp                           1.500000    1.000000
        rExp                           1.000000
      * Coulomb:
        alpha                          2.000000
        third order                    shell-resolved
        anisotropic                    true
        a3                             3.000000
        a5                             4.000000
        cn-shift                       1.200000
        cn-exp                         4.000000
        max-rad                        5.000000

q/qsh data taken from xtbrestart
CAMM data taken from xtbrestart

          ...................................................
          :                      SETUP                      :
          :.................................................:
          :  # basis functions                  48          :
          :  # atomic orbitals                  48          :
          :  # shells                           24          :
          :  # electrons                        36          :
          :  max. iterations                   250          :
          :  Hamiltonian                  GFN2-xTB          :
          :  restarted?                       true          :
          :  GBSA solvation                  false          :
          :  PC potential                    false          :
          :  electronic temp.          300.0000000     K    :
          :  accuracy                    0.2000000          :
          :  -> integral cutoff          0.3198970E+02      :
          :  -> integral neglect         0.2000000E-08      :
          :  -> SCF convergence          0.2000000E-06 Eh   :
          :  -> wf. convergence          0.2000000E-04 e    :
          :  Broyden damping             0.4000000          :
          ...................................................

 iter      E             dE          RMSdq      gap      omega  full diag
   1    -13.7643921 -0.137644E+02  0.534E-01    0.65       0.0  T
   2    -13.7643988 -0.667894E-05  0.336E-01    0.65       1.0  T
   3    -13.7644017 -0.288274E-05  0.217E-02    0.65       1.3  T
   4    -13.7644005  0.116214E-05  0.568E-03    0.65       5.1  T
   5    -13.7643889  0.115660E-04  0.172E-02    0.65       1.7  T
   6    -13.7644008 -0.118136E-04  0.493E-03    0.65       5.9  T
   7    -13.7644018 -0.102699E-05  0.486E-04    0.65      59.3  T
   8    -13.7644018  0.946771E-08  0.772E-04    0.65      37.4  T
   9    -13.7644018  0.163202E-07  0.981E-04    0.65      29.4  T
  10    -13.7644018 -0.303125E-07  0.485E-05    0.65     595.2  T
  11    -13.7644018  0.130928E-08  0.161E-04    0.65     179.0  T

   *** convergence criteria satisfied after 11 iterations ***

         #    Occupation            Energy/Eh            Energy/eV
      -------------------------------------------------------------
         1        2.0000           -0.3732098             -10.1556
       ...           ...                  ...                  ...
        12        2.0000           -0.2998891              -8.1604
        13        2.0000           -0.2569637              -6.9923
        14        2.0000           -0.2546375              -6.9290
        15        2.0000           -0.2483847              -6.7589
        16        2.0000           -0.2483846              -6.7589
        17        2.0000           -0.2464279              -6.7056
        18        2.0000           -0.2464279              -6.7056 (HOMO)
        19        0.0000           -0.2225203              -6.0551 (LUMO)
        20        0.0000           -0.2225203              -6.0551
        21        0.0000           -0.2208730              -6.0103
        22        0.0000           -0.2208730              -6.0103
        23                         -0.1801709              -4.9027
       ...                                ...                  ...
        48                          0.3881178              10.5612
      -------------------------------------------------------------
                  HL-Gap            0.0239076 Eh            0.6506 eV
             Fermi-level           -0.2344943 Eh           -6.3809 eV

 SCC (total)                   0 d,  0 h,  0 min,  0.020 sec
 SCC setup                      ...        0 min,  0.000 sec (  0.734%)
 Dispersion                     ...        0 min,  0.000 sec (  0.470%)
 classical contributions        ...        0 min,  0.000 sec (  0.173%)
 integral evaluation            ...        0 min,  0.002 sec ( 11.737%)
 iterations                     ...        0 min,  0.012 sec ( 59.132%)
 molecular gradient             ...        0 min,  0.005 sec ( 25.423%)
 printout                       ...        0 min,  0.000 sec (  2.200%)

         :::::::::::::::::::::::::::::::::::::::::::::::::::::
         ::                     SUMMARY                     ::
         :::::::::::::::::::::::::::::::::::::::::::::::::::::
         :: total energy             -13.742648949469 Eh    ::
         :: gradient norm              0.172459526686 Eh/a0 ::
         :: HOMO-LUMO gap              0.650558296322 eV    ::
         ::.................................................::
         :: SCC energy               -13.764401789795 Eh    ::
         :: -> isotropic ES            0.090948978653 Eh    ::
         :: -> anisotropic ES          0.005025914721 Eh    ::
         :: -> anisotropic XC         -0.069554047688 Eh    ::
         :: -> dispersion             -0.009429531755 Eh    ::
         :: repulsion energy           0.021628812202 Eh    ::
         :: add. restraining           0.000000000000 Eh    ::
         :: total charge              -0.000000000100 e     ::
         :::::::::::::::::::::::::::::::::::::::::::::::::::::


Property printout bound to 'properties.out'

           -------------------------------------------------
          | TOTAL ENERGY              -13.742648949469 Eh   |
          | GRADIENT NORM               0.172459526686 Eh/α |
          | HOMO-LUMO GAP               0.650558296322 eV   |
           -------------------------------------------------

------------------------------------------------------------------------
 * finished run on 2026/04/17 at 12:14:27.342     
------------------------------------------------------------------------
 total:
 * wall-time:     0 d,  0 h,  0 min,  0.033 sec
 *  cpu-time:     0 d,  0 h,  0 min,  0.033 sec
 * ratio c/w:     0.999 speedup
 SCF:
 * wall-time:     0 d,  0 h,  0 min,  0.021 sec
 *  cpu-time:     0 d,  0 h,  0 min,  0.021 sec
 * ratio c/w:     1.000 speedup


-------------------------   --------------------
FINAL SINGLE POINT ENERGY       -13.742648949470
-------------------------   --------------------


-------------
DIPOLE MOMENT
-------------
                                X             Y             Z
Total Dipole Moment    :     -0.00000      -0.00000      -0.00000
                        -----------------------------------------
Magnitude (a.u.)       :      0.00000
Magnitude (Debye)      :      0.00000


------------------
CARTESIAN GRADIENT
------------------

   1   B   :    0.049785011    0.000000365    0.000000000
   2   B   :    0.043114682    0.024892778    0.000000000
   3   B   :    0.024892017    0.043114884   -0.000000000
   4   B   :   -0.000000188    0.049784457   -0.000000000
   5   B   :   -0.024892227    0.043114538    0.000000000
   6   B   :   -0.043114503    0.024892355    0.000000000
   7   B   :   -0.049784569    0.000000347    0.000000000
   8   B   :   -0.043115051   -0.024892059    0.000000000
   9   B   :   -0.024892731   -0.043114874   -0.000000000
  10   B   :   -0.000000206   -0.049785072   -0.000000000
  11   B   :    0.024892513   -0.043115242   -0.000000000
  12   B   :    0.043115252   -0.024892474    0.000000000

Difference to translation invariance:
           :   -0.0000000000    0.0000000000    0.0000000000

Difference to rotation invariance:
           :   -0.0000000000   -0.0000000000    0.0000000000

Norm of the Cartesian gradient     ...    0.1724595267
RMS gradient                       ...    0.0287432544
MAX gradient                       ...    0.0497850724
------------------------------------------------------------------------------
                         ORCA GEOMETRY RELAXATION STEP
------------------------------------------------------------------------------

Reading the OPT-File                    .... done
Getting information on internals        .... done
Copying old internal coords+grads       .... done
Making the new internal coordinates     .... (2022 redundants) done
Validating the new internal coordinates .... (2022 redundants) done
Calculating the B-matrix                .... done
Calculating the G,G- and P matrices     .... done
Transforming gradient to internals      .... done
Projecting the internal gradient        .... done
Number of atoms                         ....  12
Number of internal coordinates          ....  36
Current Energy                          ....   -13.742648949 Eh
Current gradient norm                   ....     0.172459527 Eh/bohr
Maximum allowed component of the step   ....  0.300
Current trust radius                    ....  0.300
Updating the Hessian (BFGS)             .... done
Forming the augmented Hessian           .... done
Diagonalizing the augmented Hessian     .... done
Last element of RFO vector              ....  0.716576088
Lowest eigenvalues of augmented Hessian:
 -0.324301103  0.010000000  0.010000000  0.010000000  0.010000000
Length of the computed step             ....  0.973391304
Warning: the length of the step is outside the trust region - taking restricted step instead
The input lambda is                     ....     0.009000
   iter:   5  x=   -0.050096  g= 2371.723268 f(x)=    53.753091
   iter:  10  x=   -0.471023  g=    5.838081 f(x)=     0.891599
   iter:  15  x=   -1.092556  g=    0.163986 f(x)=     0.000704
The output lambda is                    ....    -1.092581 (18 iterations)
The final length of the internal step   ....  0.300000000
Converting the step to Cartesian space:
 Initial RMS(Int)=    0.0500000000
Transforming coordinates:
 Iter   0:  RMS(Cart)=    0.0965925826 RMS(Int)=    0.0500000000
done
Storing new coordinates                 .... done
The predicted energy change is          ....    -0.099141101
Previously predicted energy change      ....    -0.095774265
Actually observed energy change         ....    -0.100912074
Ratio of predicted to observed change   ....     1.053644983
New trust radius                        ....     0.450000000

                                .--------------------.
          ----------------------|Geometry convergence|-------------------------
          Item                value                   Tolerance       Converged
          ---------------------------------------------------------------------
          Energy change      -0.1009120741            0.0000010000      NO
          RMS gradient        0.0555277036            0.0000300000      NO
          MAX gradient        0.0961775466            0.0001000000      NO
          RMS step            0.0500000000            0.0006000000      NO
          MAX step            0.0866037319            0.0010000000      NO
          -------------------------------------------------------------------------
          ........................................................
          Max(Bonds)      0.0458      Max(Angles)    0.00
          Max(Dihed)        0.00      Max(Improp)    0.00
          ---------------------------------------------------------------------

The optimization has not yet converged - more geometry cycles are needed


    ---------------------------------------------------------------------------
                         Redundant Internal Coordinates
                            (Angstroem and degrees)

        Definition                    Value    dE/dq     Step     New-Value
    ----------------------------------------------------------------------------
     1. B(B   1,B   0)                1.8542  0.096177 -0.0458    1.8083   
     2. B(B   2,B   1)                1.8542  0.096177 -0.0458    1.8083   
     3. B(B   3,B   2)                1.8542  0.096176 -0.0458    1.8083   
     4. B(B   4,B   3)                1.8542  0.096176 -0.0458    1.8083   
     5. B(B   5,B   4)                1.8542  0.096176 -0.0458    1.8083   
     6. B(B   6,B   5)                1.8542  0.096176 -0.0458    1.8083   
     7. B(B   7,B   6)                1.8542  0.096177 -0.0458    1.8083   
     8. B(B   8,B   7)                1.8542  0.096177 -0.0458    1.8083   
     9. B(B   9,B   8)                1.8542  0.096177 -0.0458    1.8083   
    10. B(B  10,B   9)                1.8542  0.096177 -0.0458    1.8083   
    11. B(B  11,B  10)                1.8542  0.096178 -0.0458    1.8083   
    12. B(B  11,B   0)                1.8542  0.096177 -0.0458    1.8083   
    13. A(B   1,B   0,B  11)          150.00 -0.000000    0.00    150.00   
    14. A(B   0,B   1,B   2)          150.00 -0.000000   -0.00    150.00   
    15. A(B   1,B   2,B   3)          150.00  0.000000   -0.00    150.00   
    16. A(B   2,B   3,B   4)          150.00  0.000000   -0.00    150.00   
    17. A(B   3,B   4,B   5)          150.00  0.000000   -0.00    150.00   
    18. A(B   4,B   5,B   6)          150.00  0.000000   -0.00    150.00   
    19. A(B   5,B   6,B   7)          150.00  0.000000   -0.00    150.00   
    20. A(B   6,B   7,B   8)          150.00  0.000000    0.00    150.00   
    21. A(B   7,B   8,B   9)          150.00 -0.000000    0.00    150.00   
    22. A(B   8,B   9,B  10)          150.00 -0.000000    0.00    150.00   
    23. A(B   9,B  10,B  11)          150.00 -0.000000    0.00    150.00   
    24. A(B   0,B  11,B  10)          150.00 -0.000000    0.00    150.00   
    25. D(B   2,B   1,B   0,B  11)      0.00  0.000000   -0.00      0.00   
    26. D(B   3,B   2,B   1,B   0)      0.00  0.000000   -0.00      0.00   
    27. D(B   4,B   3,B   2,B   1)     -0.00  0.000000   -0.00     -0.00   
    28. D(B   5,B   4,B   3,B   2)     -0.00 -0.000000    0.00     -0.00   
    29. D(B   6,B   5,B   4,B   3)      0.00 -0.000000    0.00      0.00   
    30. D(B   7,B   6,B   5,B   4)      0.00 -0.000000   -0.00      0.00   
    31. D(B   8,B   7,B   6,B   5)      0.00  0.000000   -0.00     -0.00   
    32. D(B   9,B   8,B   7,B   6)      0.00  0.000000   -0.00     -0.00   
    33. D(B  10,B   9,B   8,B   7)      0.00  0.000000   -0.00      0.00   
    34. D(B  11,B  10,B   9,B   8)      0.00 -0.000000    0.00      0.00   
    35. D(B   0,B  11,B  10,B   9)     -0.00 -0.000000    0.00     -0.00   
    36. D(B  10,B  11,B   0,B   1)     -0.00 -0.000000    0.00     -0.00   
    ----------------------------------------------------------------------------

Geometry step timings:
Preparation and reading OPT file:      0.000 s ( 1.457 %)
Internal coordinates            :      0.000 s ( 1.360 %)
B/P matrices and projection     :      0.000 s (18.796 %)
Hessian update/contruction      :      0.001 s (30.209 %)
Making the step                 :      0.000 s (22.875 %)
Converting the step to Cartesian:      0.000 s ( 1.846 %)
Storing new data                :      0.000 s ( 2.283 %)
Checking convergence            :      0.000 s ( 5.391 %)
Final printing                  :      0.000 s (15.687 %)
Total time                      :      0.002 s

Time for energy+gradient        :      0.045 s
Time for complete geometry iter :      0.049 s

         *************************************************************
         *                GEOMETRY OPTIMIZATION CYCLE   3            *
         *************************************************************
---------------------------------
CARTESIAN COORDINATES (ANGSTROEM)
---------------------------------
  B     3.493452   -0.000001    0.000000
  B     3.025418    1.746725    0.000000
  B     1.746727    3.025418   -0.000000
  B     0.000000    3.493453   -0.000000
  B    -1.746726    3.025419    0.000000
  B    -3.025419    1.746726    0.000000
  B    -3.493452   -0.000001    0.000000
  B    -3.025418   -1.746727    0.000000
  B    -1.746725   -3.025418   -0.000000
  B     0.000000   -3.493451   -0.000000
  B     1.746726   -3.025418   -0.000000
  B     3.025418   -1.746726    0.000000

----------------------------
CARTESIAN COORDINATES (A.U.)
----------------------------
  NO LB    ZA    FRAG    MASS        X           Y           Z
   0 B   5.0000    0    10.810    6.601667   -0.000001    0.000000
   1 B   5.0000    0    10.810    5.717212    3.300833    0.000000
   2 B   5.0000    0    10.810    3.300835    5.717212   -0.000000
   3 B   5.0000    0    10.810    0.000001    6.601669   -0.000000
   4 B   5.0000    0    10.810   -3.300834    5.717213    0.000000
   5 B   5.0000    0    10.810   -5.717213    3.300834    0.000000
   6 B   5.0000    0    10.810   -6.601668   -0.000001    0.000000
   7 B   5.0000    0    10.810   -5.717211   -3.300835    0.000000
   8 B   5.0000    0    10.810   -3.300833   -5.717212   -0.000000
   9 B   5.0000    0    10.810    0.000001   -6.601667   -0.000000
  10 B   5.0000    0    10.810    3.300833   -5.717211   -0.000000
  11 B   5.0000    0    10.810    5.717211   -3.300834    0.000000

      -----------------------------------------------------------      
     |                   =====================                   |     
     |                           x T B                           |     
     |                   =====================                   |     
     |                         S. Grimme                         |     
     |          Mulliken Center for Theoretical Chemistry        |     
     |                    University of Bonn                     |     
      -----------------------------------------------------------      

   * xtb version 6.6.1 (unknown) compiled by 'builduser@buildhost' on 2023-08-07

   xtb is free software: you can redistribute it and/or modify it under
   the terms of the GNU Lesser General Public License as published by
   the Free Software Foundation, either version 3 of the License, or
   (at your option) any later version.
   
   xtb is distributed in the hope that it will be useful,
   but WITHOUT ANY WARRANTY; without even the implied warranty of
   MERCHANTABILITY or FITNESS FOR A PARTICULAR PURPOSE.  See the
   GNU Lesser General Public License for more details.
   
   Cite this work as:
   * C. Bannwarth, E. Caldeweyher, S. Ehlert, A. Hansen, P. Pracht,
     J. Seibert, S. Spicher, S. Grimme, WIREs Comput. Mol. Sci., 2020, 11,
     e01493. DOI: 10.1002/wcms.1493
   
   for GFN2-xTB:
   * C. Bannwarth, S. Ehlert and S. Grimme., J. Chem. Theory Comput., 2019,
     15, 1652-1671. DOI: 10.1021/acs.jctc.8b01176
   for GFN1-xTB:
   * S. Grimme, C. Bannwarth, P. Shushkov, J. Chem. Theory Comput., 2017,
     13, 1989-2009. DOI: 10.1021/acs.jctc.7b00118
   for GFN0-xTB:
   * P. Pracht, E. Caldeweyher, S. Ehlert, S. Grimme, ChemRxiv, 2019, preprint.
     DOI: 10.26434/chemrxiv.8326202.v1
   for GFN-FF:
   * S. Spicher and S. Grimme, Angew. Chem. Int. Ed., 2020, 59, 15665-15673.
     DOI: 10.1002/anie.202004239
   
   for ALPB and GBSA implicit solvation:
   * S. Ehlert, M. Stahn, S. Spicher, S. Grimme, J. Chem. Theory Comput.,
     2021, 17, 4250-4261. DOI: 10.1021/acs.jctc.1c00471
   
   for DFT-D4:
   * E. Caldeweyher, C. Bannwarth and S. Grimme, J. Chem. Phys., 2017,
     147, 034112. DOI: 10.1063/1.4993215
   * E. Caldeweyher, S. Ehlert, A. Hansen, H. Neugebauer, S. Spicher,
     C. Bannwarth and S. Grimme, J. Chem. Phys., 2019, 150, 154122.
     DOI: 10.1063/1.5090222
   * E. Caldeweyher, J.-M. Mewes, S. Ehlert and S. Grimme, Phys. Chem. Chem. Phys.
     2020, 22, 8499-8512. DOI: 10.1039/D0CP00502A
   
   for sTDA-xTB:
   * S. Grimme and C. Bannwarth, J. Chem. Phys., 2016, 145, 054103.
     DOI: 10.1063/1.4959605
   
   in the mass-spec context:
   * V. Asgeirsson, C. Bauer and S. Grimme, Chem. Sci., 2017, 8, 4879.
     DOI: 10.1039/c7sc00601b
   * J. Koopman and S. Grimme, ACS Omega 2019, 4, 12, 15120-15133.
     DOI: 10.1021/acsomega.9b02011
   
   for metadynamics refer to:
   * S. Grimme, J. Chem. Theory Comput., 2019, 155, 2847-2862
     DOI: 10.1021/acs.jctc.9b00143
   
   for SPH calculations refer to:
   * S. Spicher and S. Grimme, J. Chem. Theory Comput., 2021, 17, 1701-1714
     DOI: 10.1021/acs.jctc.0c01306
   
   with help from (in alphabetical order)
   P. Atkinson, C. Bannwarth, F. Bohle, G. Brandenburg, E. Caldeweyher
   M. Checinski, S. Dohm, S. Ehlert, S. Ehrlich, I. Gerasimov, C. Hölzer
   A. Katbashev, J. Koopman, C. Lavigne, S. Lehtola, F. März, M. Müller,
   F. Musil, H. Neugebauer, J. Pisarek, C. Plett, P. Pracht, F. Pultar,
   J. Seibert, P. Shushkov, S. Spicher, M. Stahn, M. Steiner, T. Strunk,
   J. Stückrath, T. Rose, and J. Unsleber
   
 * started run on 2026/04/17 at 12:14:27.358     

           -------------------------------------------------
          |                Calculation Setup                |
           -------------------------------------------------

          program call               : /usr/bin/xtb ring12_d1.90_m1_XTB.xyz --grad -c 0 -u 0 -P 1 --namespace ring12_d1.90_m1 --input ring12_d1.90_m1_XTB.input.tmp --acc 0.200000
          calculation namespace      : ring12_d1.90_m1
          coordinate file            : ring12_d1.90_m1_XTB.xyz
          omp threads                :                     1

   ID    Z sym.   atoms
    1    5 B      1-12

           -------------------------------------------------
          |                 G F N 2 - x T B                 |
           -------------------------------------------------

        Reference                      10.1021/acs.jctc.8b01176
      * Hamiltonian:
        H0-scaling (s, p, d)           1.850000    2.230000    2.230000
        zeta-weighting                 0.500000
      * Dispersion:
        s8                             2.700000
        a1                             0.520000
        a2                             5.000000
        s9                             5.000000
      * Repulsion:
        kExp                           1.500000    1.000000
        rExp                           1.000000
      * Coulomb:
        alpha                          2.000000
        third order                    shell-resolved
        anisotropic                    true
        a3                             3.000000
        a5                             4.000000
        cn-shift                       1.200000
        cn-exp                         4.000000
        max-rad                        5.000000

q/qsh data taken from xtbrestart
CAMM data taken from xtbrestart

          ...................................................
          :                      SETUP                      :
          :.................................................:
          :  # basis functions                  48          :
          :  # atomic orbitals                  48          :
          :  # shells                           24          :
          :  # electrons                        36          :
          :  max. iterations                   250          :
          :  Hamiltonian                  GFN2-xTB          :
          :  restarted?                       true          :
          :  GBSA solvation                  false          :
          :  PC potential                    false          :
          :  electronic temp.          300.0000000     K    :
          :  accuracy                    0.2000000          :
          :  -> integral cutoff          0.3198970E+02      :
          :  -> integral neglect         0.2000000E-08      :
          :  -> SCF convergence          0.2000000E-06 Eh   :
          :  -> wf. convergence          0.2000000E-04 e    :
          :  Broyden damping             0.4000000          :
          ...................................................

 iter      E             dE          RMSdq      gap      omega  full diag
   1    -13.8720951 -0.138721E+02  0.613E-01    0.68       0.0  T
   2    -13.8721019 -0.681890E-05  0.384E-01    0.68       1.0  T
   3    -13.8721048 -0.288799E-05  0.207E-02    0.68       1.4  T
   4    -13.8720615  0.433219E-04  0.286E-02    0.68       1.0  T
   5    -13.8721025 -0.410516E-04  0.686E-03    0.68       4.2  T
   6    -13.8721049 -0.231367E-05  0.249E-03    0.68      11.6  T
   7    -13.8721050 -0.166830E-06  0.556E-04    0.68      51.9  T
   8    -13.8721050  0.680357E-09  0.550E-04    0.68      52.5  T
   9    -13.8721050  0.355810E-08  0.546E-04    0.68      52.9  T
  10    -13.8721050 -0.977565E-08  0.685E-05    0.68     421.1  T
  11    -13.8721050 -0.594724E-10  0.437E-05    0.68     660.8  T

   *** convergence criteria satisfied after 11 iterations ***

         #    Occupation            Energy/Eh            Energy/eV
      -------------------------------------------------------------
         1        2.0000           -0.3762020             -10.2370
       ...           ...                  ...                  ...
        12        2.0000           -0.2993513              -8.1458
        13        2.0000           -0.2606200              -7.0918
        14        2.0000           -0.2579254              -7.0185
        15        2.0000           -0.2515655              -6.8454
        16        2.0000           -0.2515654              -6.8454
        17        2.0000           -0.2492535              -6.7825
        18        2.0000           -0.2492535              -6.7825 (HOMO)
        19        0.0000           -0.2241076              -6.0983 (LUMO)
        20        0.0000           -0.2241076              -6.0983
        21        0.0000           -0.2220024              -6.0410
        22        0.0000           -0.2220024              -6.0410
        23                         -0.1786353              -4.8609
       ...                                ...                  ...
        48                          0.4556926              12.4000
      -------------------------------------------------------------
                  HL-Gap            0.0251459 Eh            0.6843 eV
             Fermi-level           -0.2366898 Eh           -6.4407 eV

 SCC (total)                   0 d,  0 h,  0 min,  0.022 sec
 SCC setup                      ...        0 min,  0.000 sec (  0.631%)
 Dispersion                     ...        0 min,  0.000 sec (  0.389%)
 classical contributions        ...        0 min,  0.000 sec (  0.151%)
 integral evaluation            ...        0 min,  0.003 sec ( 12.555%)
 iterations                     ...        0 min,  0.013 sec ( 56.858%)
 molecular gradient             ...        0 min,  0.006 sec ( 28.000%)
 printout                       ...        0 min,  0.000 sec (  1.338%)

         :::::::::::::::::::::::::::::::::::::::::::::::::::::
         ::                     SUMMARY                     ::
         :::::::::::::::::::::::::::::::::::::::::::::::::::::
         :: total energy             -13.841066821566 Eh    ::
         :: gradient norm              0.166693850769 Eh/a0 ::
         :: HOMO-LUMO gap              0.684254976918 eV    ::
         ::.................................................::
         :: SCC energy               -13.872105031952 Eh    ::
         :: -> isotropic ES            0.091871174049 Eh    ::
         :: -> anisotropic ES          0.004854164320 Eh    ::
         :: -> anisotropic XC         -0.066359385087 Eh    ::
         :: -> dispersion             -0.009651253159 Eh    ::
         :: repulsion energy           0.030909093418 Eh    ::
         :: add. restraining           0.000000000000 Eh    ::
         :: total charge              -0.000000000005 e     ::
         :::::::::::::::::::::::::::::::::::::::::::::::::::::


Property printout bound to 'properties.out'

           -------------------------------------------------
          | TOTAL ENERGY              -13.841066821566 Eh   |
          | GRADIENT NORM               0.166693850769 Eh/α |
          | HOMO-LUMO GAP               0.684254976918 eV   |
           -------------------------------------------------

------------------------------------------------------------------------
 * finished run on 2026/04/17 at 12:14:27.392     
------------------------------------------------------------------------
 total:
 * wall-time:     0 d,  0 h,  0 min,  0.034 sec
 *  cpu-time:     0 d,  0 h,  0 min,  0.034 sec
 * ratio c/w:     0.999 speedup
 SCF:
 * wall-time:     0 d,  0 h,  0 min,  0.022 sec
 *  cpu-time:     0 d,  0 h,  0 min,  0.022 sec
 * ratio c/w:     1.000 speedup


-------------------------   --------------------
FINAL SINGLE POINT ENERGY       -13.841066821570
-------------------------   --------------------


-------------
DIPOLE MOMENT
-------------
                                X             Y             Z
Total Dipole Moment    :     -0.00000       0.00000       0.00000
                        -----------------------------------------
Magnitude (a.u.)       :      0.00000
Magnitude (Debye)      :      0.00000


------------------
CARTESIAN GRADIENT
------------------

   1   B   :    0.048120420   -0.000000070    0.000000000
   2   B   :    0.041673585    0.024060161    0.000000000
   3   B   :    0.024060280    0.041673552   -0.000000000
   4   B   :   -0.000000098    0.048120480   -0.000000000
   5   B   :   -0.024060356    0.041673403    0.000000000
   6   B   :   -0.041673483    0.024060060    0.000000000
   7   B   :   -0.048120287   -0.000000017   -0.000000000
   8   B   :   -0.041673387   -0.024060145   -0.000000000
   9   B   :   -0.024060135   -0.041673389    0.000000000
  10   B   :   -0.000000045   -0.048120292   -0.000000000
  11   B   :    0.024060082   -0.041673473   -0.000000000
  12   B   :    0.041673424   -0.024060269   -0.000000000

Difference to translation invariance:
           :    0.0000000000   -0.0000000000   -0.0000000000

Difference to rotation invariance:
           :   -0.0000000000    0.0000000000   -0.0000000000

Norm of the Cartesian gradient     ...    0.1666938508
RMS gradient                       ...    0.0277823085
MAX gradient                       ...    0.0481204804
------------------------------------------------------------------------------
                         ORCA GEOMETRY RELAXATION STEP
------------------------------------------------------------------------------

Reading the OPT-File                    .... done
Getting information on internals        .... done
Copying old internal coords+grads       .... done
Making the new internal coordinates     .... (2022 redundants) done
Validating the new internal coordinates .... (2022 redundants) done
Calculating the B-matrix                .... done
Calculating the G,G- and P matrices     .... done
Transforming gradient to internals      .... done
Projecting the internal gradient        .... done
Number of atoms                         ....  12
Number of internal coordinates          ....  36
Current Energy                          ....   -13.841066822 Eh
Current gradient norm                   ....     0.166693851 Eh/bohr
Maximum allowed component of the step   ....  0.300
Current trust radius                    ....  0.450
Updating the Hessian (BFGS)             .... done
Forming the augmented Hessian           .... done
Diagonalizing the augmented Hessian     .... done
Last element of RFO vector              ....  0.727169790
Lowest eigenvalues of augmented Hessian:
 -0.303998381  0.010000000  0.010000000  0.010000000  0.010000000
Length of the computed step             ....  0.944012874
Warning: the length of the step is outside the trust region - taking restricted step instead
The input lambda is                     ....     0.009000
   iter:   5  x=   -0.171586  g=   74.040638 f(x)=     5.016120
   iter:  10  x=   -0.674599  g=    0.683165 f(x)=     0.027076
The output lambda is                    ....    -0.678489 (14 iterations)
The final length of the internal step   ....  0.450000000
Converting the step to Cartesian space:
 Initial RMS(Int)=    0.0750000000
Transforming coordinates:
 Iter   0:  RMS(Cart)=    0.1448888739 RMS(Int)=    0.0750000000
done
Storing new coordinates                 .... done
The predicted energy change is          ....    -0.141153286
Previously predicted energy change      ....    -0.099141101
Actually observed energy change         ....    -0.098417872
Ratio of predicted to observed change   ....     0.992705059
New trust radius                        ....     0.675000000

                                .--------------------.
          ----------------------|Geometry convergence|-------------------------
          Item                value                   Tolerance       Converged
          ---------------------------------------------------------------------
          Energy change      -0.0984178721            0.0000010000      NO
[...]
    20. A(B   6,B   7,B   8)          150.00 -0.000000    0.00    150.00   
    21. A(B   7,B   8,B   9)          150.00 -0.000000    0.00    150.00   
    22. A(B   8,B   9,B  10)          150.00 -0.000000    0.00    150.00   
    23. A(B   9,B  10,B  11)          150.00 -0.000000    0.00    150.00   
    24. A(B   0,B  11,B  10)          150.00  0.000000    0.00    150.00   
    25. D(B   2,B   1,B   0,B  11)     -0.00 -0.000000    0.00      0.00   
    26. D(B   3,B   2,B   1,B   0)     -0.00 -0.000000    0.00      0.00   
    27. D(B   4,B   3,B   2,B   1)     -0.00 -0.000000    0.00      0.00   
    28. D(B   5,B   4,B   3,B   2)      0.00  0.000000   -0.00     -0.00   
    29. D(B   6,B   5,B   4,B   3)      0.00  0.000000   -0.00     -0.00   
    30. D(B   7,B   6,B   5,B   4)      0.00  0.000000   -0.00     -0.00   
    31. D(B   8,B   7,B   6,B   5)     -0.00 -0.000000    0.00      0.00   
    32. D(B   9,B   8,B   7,B   6)     -0.00 -0.000000    0.00      0.00   
    33. D(B  10,B   9,B   8,B   7)     -0.00 -0.000000    0.00      0.00   
    34. D(B  11,B  10,B   9,B   8)      0.00  0.000000   -0.00     -0.00   
    35. D(B   0,B  11,B  10,B   9)      0.00  0.000000   -0.00     -0.00   
    36. D(B  10,B  11,B   0,B   1)      0.00  0.000000   -0.00     -0.00   
    ----------------------------------------------------------------------------

Geometry step timings:
Preparation and reading OPT file:      0.000 s ( 1.911 %)
Internal coordinates            :      0.000 s ( 3.376 %)
B/P matrices and projection     :      0.000 s (26.561 %)
Hessian update/contruction      :      0.000 s (18.408 %)
Making the step                 :      0.000 s (19.172 %)
Converting the step to Cartesian:      0.000 s ( 3.567 %)
Storing new data                :      0.000 s ( 2.484 %)
Checking convergence            :      0.000 s ( 4.204 %)
Final printing                  :      0.000 s (20.318 %)
Total time                      :      0.002 s
                 *******************************************************
                 *** FINAL ENERGY EVALUATION AT THE STATIONARY POINT ***
                 ***               (AFTER    9 CYCLES)               ***
                 *******************************************************
---------------------------------
CARTESIAN COORDINATES (ANGSTROEM)
---------------------------------
  B     2.923178   -0.000003    0.000000
  B     2.531545    1.461594    0.000000
  B     1.461587    2.531552   -0.000000
  B     0.000004    2.923182   -0.000000
  B    -1.461585    2.531550   -0.000000
  B    -2.531547    1.461587    0.000000
  B    -2.923179   -0.000005    0.000000
  B    -2.531548   -1.461591    0.000000
  B    -1.461592   -2.531546   -0.000000
  B     0.000001   -2.923179   -0.000000
  B     1.461590   -2.531548   -0.000000
  B     2.531545   -1.461594    0.000000

----------------------------
CARTESIAN COORDINATES (A.U.)
----------------------------
  NO LB    ZA    FRAG    MASS        X           Y           Z
   0 B   5.0000    0    10.810    5.524006   -0.000005    0.000000
   1 B   5.0000    0    10.810    4.783926    2.762012    0.000000
   2 B   5.0000    0    10.810    2.761998    4.783940   -0.000000
   3 B   5.0000    0    10.810    0.000007    5.524013   -0.000000
   4 B   5.0000    0    10.810   -2.761995    4.783937   -0.000000
   5 B   5.0000    0    10.810   -4.783930    2.762000    0.000000
   6 B   5.0000    0    10.810   -5.524007   -0.000010    0.000000
   7 B   5.0000    0    10.810   -4.783932   -2.762006    0.000000
   8 B   5.0000    0    10.810   -2.762008   -4.783929   -0.000000
   9 B   5.0000    0    10.810    0.000001   -5.524008   -0.000000
  10 B   5.0000    0    10.810    2.762006   -4.783932   -0.000000
  11 B   5.0000    0    10.810    4.783928   -2.762012    0.000000

      -----------------------------------------------------------      
     |                   =====================                   |     
     |                           x T B                           |     
     |                   =====================                   |     
     |                         S. Grimme                         |     
     |          Mulliken Center for Theoretical Chemistry        |     
     |                    University of Bonn                     |     
      -----------------------------------------------------------      

   * xtb version 6.6.1 (unknown) compiled by 'builduser@buildhost' on 2023-08-07

   xtb is free software: you can redistribute it and/or modify it under
   the terms of the GNU Lesser General Public License as published by
   the Free Software Foundation, either version 3 of the License, or
   (at your option) any later version.
   
   xtb is distributed in the hope that it will be useful,
   but WITHOUT ANY WARRANTY; without even the implied warranty of
   MERCHANTABILITY or FITNESS FOR A PARTICULAR PURPOSE.  See the
   GNU Lesser General Public License for more details.
   
   Cite this work as:
   * C. Bannwarth, E. Caldeweyher, S. Ehlert, A. Hansen, P. Pracht,
     J. Seibert, S. Spicher, S. Grimme, WIREs Comput. Mol. Sci., 2020, 11,
     e01493. DOI: 10.1002/wcms.1493
   
   for GFN2-xTB:
   * C. Bannwarth, S. Ehlert and S. Grimme., J. Chem. Theory Comput., 2019,
     15, 1652-1671. DOI: 10.1021/acs.jctc.8b01176
   for GFN1-xTB:
   * S. Grimme, C. Bannwarth, P. Shushkov, J. Chem. Theory Comput., 2017,
     13, 1989-2009. DOI: 10.1021/acs.jctc.7b00118
   for GFN0-xTB:
   * P. Pracht, E. Caldeweyher, S. Ehlert, S. Grimme, ChemRxiv, 2019, preprint.
     DOI: 10.26434/chemrxiv.8326202.v1
   for GFN-FF:
   * S. Spicher and S. Grimme, Angew. Chem. Int. Ed., 2020, 59, 15665-15673.
     DOI: 10.1002/anie.202004239
   
   for ALPB and GBSA implicit solvation:
   * S. Ehlert, M. Stahn, S. Spicher, S. Grimme, J. Chem. Theory Comput.,
     2021, 17, 4250-4261. DOI: 10.1021/acs.jctc.1c00471
   
   for DFT-D4:
   * E. Caldeweyher, C. Bannwarth and S. Grimme, J. Chem. Phys., 2017,
     147, 034112. DOI: 10.1063/1.4993215
   * E. Caldeweyher, S. Ehlert, A. Hansen, H. Neugebauer, S. Spicher,
     C. Bannwarth and S. Grimme, J. Chem. Phys., 2019, 150, 154122.
     DOI: 10.1063/1.5090222
   * E. Caldeweyher, J.-M. Mewes, S. Ehlert and S. Grimme, Phys. Chem. Chem. Phys.
     2020, 22, 8499-8512. DOI: 10.1039/D0CP00502A
   
   for sTDA-xTB:
   * S. Grimme and C. Bannwarth, J. Chem. Phys., 2016, 145, 054103.
     DOI: 10.1063/1.4959605
   
   in the mass-spec context:
   * V. Asgeirsson, C. Bauer and S. Grimme, Chem. Sci., 2017, 8, 4879.
     DOI: 10.1039/c7sc00601b
   * J. Koopman and S. Grimme, ACS Omega 2019, 4, 12, 15120-15133.
     DOI: 10.1021/acsomega.9b02011
   
   for metadynamics refer to:
   * S. Grimme, J. Chem. Theory Comput., 2019, 155, 2847-2862
     DOI: 10.1021/acs.jctc.9b00143
   
   for SPH calculations refer to:
   * S. Spicher and S. Grimme, J. Chem. Theory Comput., 2021, 17, 1701-1714
     DOI: 10.1021/acs.jctc.0c01306
   
   with help from (in alphabetical order)
   P. Atkinson, C. Bannwarth, F. Bohle, G. Brandenburg, E. Caldeweyher
   M. Checinski, S. Dohm, S. Ehlert, S. Ehrlich, I. Gerasimov, C. Hölzer
   A. Katbashev, J. Koopman, C. Lavigne, S. Lehtola, F. März, M. Müller,
   F. Musil, H. Neugebauer, J. Pisarek, C. Plett, P. Pracht, F. Pultar,
   J. Seibert, P. Shushkov, S. Spicher, M. Stahn, M. Steiner, T. Strunk,
   J. Stückrath, T. Rose, and J. Unsleber
   
 * started run on 2026/04/17 at 12:14:27.714     

           -------------------------------------------------
          |                Calculation Setup                |
           -------------------------------------------------

          program call               : /usr/bin/xtb ring12_d1.90_m1_XTB.xyz --grad -c 0 -u 0 -P 1 --namespace ring12_d1.90_m1 --input ring12_d1.90_m1_XTB.input.tmp --acc 0.200000
          calculation namespace      : ring12_d1.90_m1
          coordinate file            : ring12_d1.90_m1_XTB.xyz
          omp threads                :                     1

   ID    Z sym.   atoms
    1    5 B      1-12

           -------------------------------------------------
          |                 G F N 2 - x T B                 |
           -------------------------------------------------

        Reference                      10.1021/acs.jctc.8b01176
      * Hamiltonian:
        H0-scaling (s, p, d)           1.850000    2.230000    2.230000
        zeta-weighting                 0.500000
      * Dispersion:
        s8                             2.700000
        a1                             0.520000
        a2                             5.000000
        s9                             5.000000
      * Repulsion:
        kExp                           1.500000    1.000000
        rExp                           1.000000
      * Coulomb:
        alpha                          2.000000
        third order                    shell-resolved
        anisotropic                    true
        a3                             3.000000
        a5                             4.000000
        cn-shift                       1.200000
        cn-exp                         4.000000
        max-rad                        5.000000

q/qsh data taken from xtbrestart
CAMM data taken from xtbrestart

          ...................................................
          :                      SETUP                      :
          :.................................................:
          :  # basis functions                  48          :
          :  # atomic orbitals                  48          :
          :  # shells                           24          :
          :  # electrons                        36          :
          :  max. iterations                   250          :
          :  Hamiltonian                  GFN2-xTB          :
          :  restarted?                       true          :
          :  GBSA solvation                  false          :
          :  PC potential                    false          :
          :  electronic temp.          300.0000000     K    :
          :  accuracy                    0.2000000          :
          :  -> integral cutoff          0.3198970E+02      :
          :  -> integral neglect         0.2000000E-08      :
          :  -> SCF convergence          0.2000000E-06 Eh   :
          :  -> wf. convergence          0.2000000E-04 e    :
          :  Broyden damping             0.4000000          :
          ...................................................

 iter      E             dE          RMSdq      gap      omega  full diag
   1    -14.5344710 -0.145345E+02  0.289E-04    0.95       0.0  T
   2    -14.5344710  0.738673E-08  0.594E-04    0.95      48.6  T
   3    -14.5344710 -0.659843E-08  0.277E-04    0.95     104.3  T
   4    -14.5344710  0.274805E-08  0.271E-04    0.95     106.5  T
   5    -14.5344710 -0.392450E-08  0.473E-05    0.95     609.8  T
   6    -14.5344710 -0.147331E-10  0.397E-05    0.95     727.5  T

   *** convergence criteria satisfied after 6 iterations ***

         #    Occupation            Energy/Eh            Energy/eV
      -------------------------------------------------------------
         1        2.0000           -0.3950225             -10.7491
       ...           ...                  ...                  ...
        12        2.0000           -0.2876462              -7.8273
        13        2.0000           -0.2846976              -7.7470
        14        2.0000           -0.2824526              -7.6859
        15        2.0000           -0.2751202              -7.4864
        16        2.0000           -0.2751200              -7.4864
        17        2.0000           -0.2702131              -7.3529
        18        2.0000           -0.2702129              -7.3529 (HOMO)
        19                         -0.2354815              -6.4078 (LUMO)
        20                         -0.2354815              -6.4078
        21                         -0.2290635              -6.2331
        22                         -0.2290634              -6.2331
        23                         -0.1639692              -4.4618
       ...                                ...                  ...
        48                          1.2359348              33.6315
      -------------------------------------------------------------
                  HL-Gap            0.0347314 Eh            0.9451 eV
             Fermi-level           -0.2528451 Eh           -6.8803 eV

 SCC (total)                   0 d,  0 h,  0 min,  0.016 sec
 SCC setup                      ...        0 min,  0.000 sec (  0.911%)
 Dispersion                     ...        0 min,  0.000 sec (  0.540%)
 classical contributions        ...        0 min,  0.000 sec (  0.203%)
 integral evaluation            ...        0 min,  0.003 sec ( 17.944%)
 iterations                     ...        0 min,  0.007 sec ( 44.865%)
 molecular gradient             ...        0 min,  0.005 sec ( 33.606%)
 printout                       ...        0 min,  0.000 sec (  1.791%)

         :::::::::::::::::::::::::::::::::::::::::::::::::::::
         ::                     SUMMARY                     ::
         :::::::::::::::::::::::::::::::::::::::::::::::::::::
         :: total energy             -14.251420972942 Eh    ::
         :: gradient norm              0.000013235790 Eh/a0 ::
         :: HOMO-LUMO gap              0.945089586674 eV    ::
         ::.................................................::
         :: SCC energy               -14.534470988676 Eh    ::
         :: -> isotropic ES            0.093383097945 Eh    ::
         :: -> anisotropic ES          0.002373619680 Eh    ::
         :: -> anisotropic XC         -0.039942962932 Eh    ::
         :: -> dispersion             -0.012534908510 Eh    ::
         :: repulsion energy           0.282912023569 Eh    ::
         :: add. restraining           0.000000000000 Eh    ::
         :: total charge               0.000000000205 e     ::
         :::::::::::::::::::::::::::::::::::::::::::::::::::::


Property printout bound to 'properties.out'

           -------------------------------------------------
          | TOTAL ENERGY              -14.251420972942 Eh   |
          | GRADIENT NORM               0.000013235790 Eh/α |
          | HOMO-LUMO GAP               0.945089586674 eV   |
           -------------------------------------------------

------------------------------------------------------------------------
 * finished run on 2026/04/17 at 12:14:27.742     
------------------------------------------------------------------------
 total:
 * wall-time:     0 d,  0 h,  0 min,  0.028 sec
 *  cpu-time:     0 d,  0 h,  0 min,  0.028 sec
 * ratio c/w:     0.995 speedup
 SCF:
 * wall-time:     0 d,  0 h,  0 min,  0.016 sec
 *  cpu-time:     0 d,  0 h,  0 min,  0.016 sec
 * ratio c/w:     1.000 speedup


-------------------------   --------------------
FINAL SINGLE POINT ENERGY       -14.251420972940
-------------------------   --------------------


-------------
DIPOLE MOMENT
-------------
                                X             Y             Z
Total Dipole Moment    :      0.00000       0.00000       0.00000
                        -----------------------------------------
Magnitude (a.u.)       :      0.00000
Magnitude (Debye)      :      0.00000

                                *** OPTIMIZATION RUN DONE ***


--------------------------------
SUGGESTED CITATIONS FOR THIS RUN
--------------------------------

Below you find a list of papers that are relevant to this ORCA run
We neither can nor want to force you to cite these papers, but we appreciate if you do
You receive ORCA, which is the product of decades of hard work by many enthusiastic individuals, for free
The only thing we kindly ask in return is that you cite our papers,
We deeply appreciate it, if you show your appreciation for ORCA by not just citing the generic ORCA reference.

Please note that relegating all ORCA citations to the supporting information does *not* help us.
SI sections are not indexed - citations you put there will not count into any citation statistics
But we need these citations in order to attract the funding resources that allow us to do what we are doing

Therefore, if you are a happy ORCA user, please consider citing a few of the papers listed below in the main body of your paper

In addition to the list printed below, the program has created the file ring12_d1.90_m1.bibtex that contains the list in bibtex format
You can import this file easily into all common literature databanks and citation aid programs

It goes without saying that in many instances, there are alternative algorithms to achieve similar
results as the ones you have gotten from ORCA. It is, of course, also the case that in some instances
ORCA just re-implements algorithms worked out by others. We are fully aware of that and we are also
fully appreciative of our colleagues work. Hence this citation list should not be read as indicating
that the listed papers, which are focused on our own work, are the only ones worth citing. It simply
meant to make it easier for users to cite ORCA specific papers. It is not a substitute for doing your
own literature research and citing the relevant literature in a scientifically appropriate manner.

List of essential papers. We consider these as the minimum necessary citations

  1. Bannwarth, C.; Ehlert, S.; Grimme, S.
     GFN2-xTB—An Accurate and Broadly Parametrized Self-Consistent Tight-Binding Quantum Chemical Method with Multipole Electrostatics and Density-Dependent Dispersion Contributions
     J. Chem. Theory Comput. 2019 15(3), 1652-1671
     doi.org/10.1021/acs.jctc.8b01176
  2. Neese, F.
     Software update: the ORCA program system, version 6.0
     WIRES Comput. Molec. Sci. 2025 15(1), e70019
     doi.org/10.1002/wcms.70019

List of papers to cite with high priority. The work reported in these papers was absolutely
necessary for this run to complete.
Our perspective: the developers of density functionals and basis sets usually get cited in chemistry papers
Good! But without the algorithms to do something with them, the functionals or basis sets would not do anything.
Hence, in our opinion, the algorithm design and method developments papers are equally worthy of getting cited

  1. Bannwarth, C.; Caldeweyher, E.; Ehlert, S.; Hansen, A.; Pracht, P.; Seibert, J.; Spicher, S.; Grimme, S.
     Extended tight-binding quantum chemistry methods
     WIRES Comput. Molec. Sci. 2020 11(2), e1493
     doi.org/10.1002/wcms.1493

List of suggested additional citations. These are papers that are important in the 'surrounding' of 
of this run, or papers that preceded the highly important papers. If you like your results we are grateful for a citation.

  1. Neese, F.
     The ORCA program system
     WIRES Comput. Molec. Sci. 2012 2(1), 73-78
     doi.org/10.1002/wcms.81
  2. Neese, F.
     Software update: the ORCA program system, version 4.0
     WIRES Comput. Molec. Sci. 2018 8(1), 1-6
     doi.org/10.1002/wcms.1327
  3. Neese, F.; Wennmohs, F.; Becker, U.; Riplinger, C.
     The ORCA quantum chemistry program package
     J. Chem. Phys. 2020 152(22), 224108
     doi.org/10.1063/5.0004608
  4. Neese, F.
     Software update: The ORCA program system—Version 5.0
     WIRES Comput. Molec. Sci. 2022 12(1), e1606
     doi.org/10.1002/wcms.1606

List of optional additional citations

  1. Neese, F.
     Approximate second-order SCF convergence for spin unrestricted wavefunctions
     Chem. Phys. Lett. 2000 325(1-3), 93-98
     doi.org/10.1016/s0009-2614(00)00662-x

Timings for individual modules:

Sum of individual times          ...        0.483 sec (=   0.008 min)
Geometry relaxation              ...        0.030 sec (=   0.001 min)   6.2 %
XTB module                       ...        0.453 sec (=   0.008 min)  93.8 %
                             ****ORCA TERMINATED NORMALLY****
TOTAL RUN TIME: 0 days 0 hours 0 minutes 0 seconds 703 msec
