
                                 *****************
                                 * O   R   C   A *
                                 *****************

                                            #,                                       
                                            ###                                      
                                            ####                                     
                                            #####                                    
                                            ######                                   
                                           ########,                                 
                                     ,,################,,,,,                         
                               ,,#################################,,                 
                          ,,##########################################,,             
                       ,#########################################, ''#####,          
                    ,#############################################,,   '####,        
                  ,##################################################,,,,####,       
                ,###########''''           ''''###############################       
              ,#####''   ,,,,##########,,,,          '''####'''          '####       
            ,##' ,,,,###########################,,,                        '##       
           ' ,,###''''                  '''############,,,                           
         ,,##''                                '''############,,,,        ,,,,,,###''
      ,#''                                            '''#######################'''  
     '                                                          ''''####''''         
             ,#######,   #######,   ,#######,      ##                                
            ,#'     '#,  ##    ##  ,#'     '#,    #''#        ,####,    ,#,          
            ##       ##  ##   ,#'  ##            #'  '#       #'       ,# #          
            ##       ##  #######   ##           ,######,      #####,      #          
            '#,     ,#'  ##    ##  '#,     ,#' ,#      #,     #,   #      #          
             '#######'   ##     ##  '#######'  #'      '#     '####' #    #          



                #########################################################
                #                        -***-                          #
                #          Department of theory and spectroscopy        #
                #                                                       #
                #                      Frank Neese                      #
                #                                                       #
                #     Directorship, Architecture, Infrastructure        #
                #                    SHARK, DRIVERS                     #
                #        Core code/Algorithms in most modules           #
                #                                                       #
                #        Max Planck Institute fuer Kohlenforschung      #
                #                Kaiser Wilhelm Platz 1                 #
                #                 D-45470 Muelheim/Ruhr                 #
                #                      Germany                          #
                #                                                       #
                #                  All rights reserved                  #
                #                        -***-                          #
                #########################################################


                         Program Version 6.1.1  -  RELEASE   -
                                (GIT: $487d211c$)
                          ($2025-11-21 10:33:24 +0100$)
                                                                         
                                  - NO-DMRG VERSION -                    
                                                                         


 With contributions from (in alphabetic order):
[Max-Planck-Institut fuer Kohlenforschung]                               
  Daniel Aravena         : Magnetic Suceptibility                        
  Michael Atanasov       : Ab Initio Ligand Field Theory (pilot matlab implementation)
  Alexander A. Auer      : GIAO ZORA, VPT2 properties, NMR spectrum      
  Ute Becker             : All parallelization in ORCA, NUMFREQ, NUMCALC 
  Giovanni Bistoni       : ED, misc. LED, open-shell LED, HFLD           
  Dmytro Bykov           : pre 5.0 version of the SCF Hessian            
  Marcos Casanova-Páez   : Triplet and SCS-CIS(D). UHF-(DLPNO)-IP/EA/STEOM-CCSD. UHF-CVS-IP/STEOM-CCSD   
  Vijay G. Chilkuri      : MRCI spin determinant printing, contributions to CSF-ICE 
  Pauline Colinet        : FMM embedding                                 
  Dipayan Datta          : RHF DLPNO-CCSD density                        
  Achintya Kumar Dutta   : EOM-CC, STEOM-CC                              
  Nicolas Foglia         : Exact transition moments, OPA infrastructure, MCD improvements    
  Dmitry Ganyushin       : Spin-Orbit,Spin-Spin,Magnetic field MRCI      
  Miquel Garcia-Rates    : C-PCM and meta-GGA Hessian, CCSD/C-PCM, Gaussian charge scheme 
  Tiago L. C. Gouveia    : GS-ROHF, GS-ROCIS                             
  Yang Guo               : DLPNO-NEVPT2, F12-NEVPT2, CIM, IAO-localization        
  Andreas Hansen         : Spin unrestricted coupled pair/coupled cluster methods 
  Ingolf Harden          : AUTO-CI MPn and infrastructure                
  Benjamin Helmich-Paris : MC-RPA, TRAH-(SCF,CASSCF), AVAS, COSX integrals, SCF dyn. polar., MC-PDFT, srDFT 
  Lee Huntington         : MR-EOM, pCC                                   
  Robert Izsak           : Overlap fitted RIJCOSX, COSX-SCS-MP3, EOM     
  Riya Kayal             : Wick's Theorem for AUTO-CI, AUTO-CI UHF-CCSDT 
  Emily Kempfer          : AUTO-CI RHF CISDT and CCSDT, approximate NEVPT4
  Christian Kollmar      : KDIIS, OOCD, Brueckner-CCSD(T), CCSD density, CASPT2, CASPT2-K, improved NEVPT2 
  Axel Koslowski         : Symmetry handling                             
  Simone Kossmann        : meta-GGA functionals, TD-DFT gradient, OOMP2, (MP2 Hessian; deprecated post 5.0) 
  Lucas Lang             : DCDCAS, Hyperfine gauge corrections, ICE-SOC+SSC
  Marvin Lechner         : AUTO-CI (C++ implementation), FIC-MRCC        
  Spencer Leger          : CASSCF response                               
  Dagmar Lenk            : GEPOL surface, SMD, ORCA-2-JSON               
  Dimitrios Liakos       : Extrapolation schemes; Compound Job, Property file
  Dimitrios Manganas     : Further ROCIS development; embedding schemes. LFT, Crystal Embedding 
  Dimitrios Pantazis     : SARC Basis sets                               
  Anastasios Papadopoulos: AUTO-CI, single reference methods and gradients 
  Taras Petrenko         : pre 6.0 DFT Hessian and TD-DFT gradient,  ECA, NRVS 
  Petra Pikulova         : Analytic Raman intensities                    
  Peter Pinski           : DLPNO-MP2, DLPNO-MP2 Gradient                 
  Shashank Vittal Rao    : ES-AILFT, MagRelax                            
  Christoph Reimann      : Effective Core Potentials                     
  Marius Retegan         : Local ZFS, SOC                                
  Christoph Riplinger    : Optimizer, TS searches, QM/MM, DLPNO-CCSD(T), (RO)-DLPNO pert. Triples 
  Michael Roemelt        : Original ROCIS implementation, recursive CI coupling coefficients
  Masaaki Saitow         : Open-shell DLPNO-CCSD energy and density      
  Barbara Sandhoefer     : DKH picture change effects                    
  Yorick L. A. Schmerwitz: GMF and freeze-and-release deltaSCF, NEB S-IDPP initial path                    
  Kantharuban Sivalingam : CASSCF convergence/infrastructure, NEVPT2, NEVPT3, NEVPT4(SD), FIC-MRCI and CEPA variants
  Bernardo de Souza      : ESD, SOC TD-DFT                               
  Georgi L. Stoychev     : AutoAux, RI-MP2 NMR, DLPNO-MP2 response, X2C  
  Van Anh Tran           : RI-MP2 g-tensors                              
  Willem Van den Heuvel  : Paramagnetic NMR                              
  Zikuan Wang            : NOTCH, Electric field optimization            
  Frank Wennmohs         : Technical directorship and infrastructure     
  Hang Xu                : AUTO-CI-Response properties                   
                                                                         
[FACCTs GmbH]                                                            
  Markus Bursch, Nicolas Foglia, Miquel Garcia-Rates, Ingolf Harden, Hagen Neugebauer, Anastasios Papadopoulos, 
  Christoph Riplinger, Bernardo de Souza, Georgi L. Stoychev                                                    
                                                                 
  APM, various basis sets, CI-OPT, improved COSX, DLPNO-Multilevel,           
  DOCKER, DRACO, updates on ESD, Fragmentator, GOAT, IRC, LR-CPCM, L-BFGS, MBIS, meta-GGA TD-DFT gradient, ML-optimized integration grids, 
  MM, NACMEs, nearIR, NEB, NEB-TS, NL-DFT gradient (VV10), 2- and 3-layer-ONIOM, interface openCOSMO-RS, QMMM,   
  Crystal-QMMM, RESP, rigid body optimization, SF, symmetry and pop. for TD-DFT, various functionals, SOLVATOR                                   
                                                                         
[Other institutions]                                                     
  V. Asgeirsson          : NEB                                           
  Christoph Bannwarth    : sTDA-DFT, sTD-DFT, PBEh-3c, B97-3c, D3        
  Giovanni Bistoni       : ETS/NOCV, ADLD/ADEX, COVALED                  
  Martin Brehm           : Molecular dynamics                            
  Ronald Cardenas        : ETS/NOCV                                      
  Martina Colucci        : COVALED                                       
  Sebastian Ehlert       : rSCAN, r2SCAN, r2SCAN-3c, D4, dhf basis sets  
  Marvin Friede          : D4 for Fr, Ra, Ac-Lr                          
  Lars Goerigk           : TD-DFT with DH, B97 family of functionals     
  Stefan Grimme          : VdW corrections, initial TS optimization, DFT functionals, gCP, sTDA/sTD-DF 
  Waldemar Hujo          : DFT-NL                                        
  H. Jonsson             : NEB                                           
  Holger Kruse           : gCP                                           
  Marcel Mueller         : wB97X-3c, vDZP basis set                      
  Hagen Neugebauer       : wr2SCAN, Native XTB                           
  Gianluca Regni         : ADLD/ADEX                                     
  Tobias Risthaus        : pre 6.0 range-separated hybrid DFT and stability analysis
  Lukas Wittmann         : regularized MP2, r2SCAN double-hybrids, wr2SCAN        
                                                                         
We gratefully acknowledge several colleagues who have allowed us to      
interface, adapt or use parts of their codes:                            
  Ed Valeev, F. Pavosevic, A. Kumar             : LibInt (2-el integral package), F12 methods 
  Garnet Chan, S. Sharma, J. Yang, R. Olivares  : DMRG                   
  Ulf Ekstrom                                   : XCFun DFT Library      
  Mihaly Kallay                                 : mrcc  (arbitrary order and MRCC methods)
  Frank Weinhold                                : gennbo (NPA and NBO analysis)           
  Simon Mueller                                 : openCOSMO-RS                            
  Christopher J. Cramer and Donald G. Truhlar   : smd solvation model                     
  S Lehtola, MJT Oliveira, MAL Marques          : LibXC Library                           
  Liviu Ungur et al                             : ANISO software                          


 Your calculation uses the libint2 library for the computation of 2-el integrals
 For citations please refer to: http://libint.valeyev.net

 Your ORCA version has been built with support for libXC version: 7.0.0
 For citations please refer to: https://libxc.gitlab.io

 This ORCA versions uses:
   CBLAS   interface :  Fast vector & matrix operations
   LAPACKE interface :  Fast linear algebra routines
   SCALAPACK package :  Parallel linear algebra routines
   Shared memory     :  Shared parallel matrices
   BLAS/LAPACK       :  OpenBLAS 0.3.29  USE64BITINT DYNAMIC_ARCH NO_AFFINITY Zen SINGLE_THREADED
        Core in use  :  Zen
   Copyright (c) 2011-2014, The OpenBLAS Project


  ***********************************
  * Starting time: Fri Apr 17 12:13:52 2026
  * Host name:     vmi3233575
  * Process ID:    330151
  * Working dir.:  /root/orca_b12_vps_pack/jobs/01_xtb/mult_1
  ***********************************

NOTE: MaxCore=500 MB was set to SCF,MP2,MDCI,CIPSI,MRCI,RASCI and CIS
      => If you want to overwrite this, your respective input block should be placed after the MaxCore statement


***************************************
The coordinates will be read from file: ../../../starts/double_ring_6_6_d1.50.xyz
***************************************


Your calculation utilizes the semiempirical GFN2-xTB method
Please cite in your paper:
Bannwarth, C.; Ehlert S.; Grimme, S. J. Chem. Theory Comput. 2019, 15, 1652.
   

================================================================================

================================================================================
                                        WARNINGS
                       Please study these warnings very carefully!
================================================================================


WARNING: Geometry Optimization
  ===> : Switching off AutoStart
         For restart on a previous wavefunction, please use MOREAD

WARNING: Found dipole moment calculation with XTB calculation
  ===> : Switching off dipole moment calculation

Environment variable XTBEXE for xtb has been set!

================================================================================
                                       INPUT FILE
================================================================================
NAME = double_ring_6_6_d1.50_m1.inp
|  1> ! GFN2-xTB TightSCF TightOpt
|  2> 
|  3> %pal
|  4>   nprocs 1
|  5> end
|  6> 
|  7> %maxcore 500
|  8> 
|  9> * xyzfile 0 1 ../../../starts/double_ring_6_6_d1.50.xyz
| 10> 
| 11>                          ****END OF INPUT****
================================================================================

                       *****************************
                       * Geometry Optimization Run *
                       *****************************

Geometry optimization settings:
Update method            Update   .... BFGS
Choice of coordinates    CoordSys .... (2022) Redundant Internals
Initial Hessian          InHess   .... Almloef's Model
Max. no of cycles        MaxIter  .... 50

Convergence Tolerances:
Energy Change            TolE     ....  1.0000e-06 Eh
Max. Gradient            TolMAXG  ....  1.0000e-04 Eh/bohr
RMS Gradient             TolRMSG  ....  3.0000e-05 Eh/bohr
Max. Displacement        TolMAXD  ....  1.0000e-03 bohr
RMS Displacement         TolRMSD  ....  6.0000e-04 bohr
Strict Convergence                .... False

------------------------------------------------------------------------------
                        ORCA OPTIMIZATION COORDINATE SETUP
------------------------------------------------------------------------------

The optimization will be done in redundant internal coordinates (2022)
Making redundant internal coordinates   ...  (2022 redundants) done
Evaluating the initial hessian          ...  (Almloef) done
Evaluating the coordinates              ...  done
Calculating the B-matrix                .... done
Calculating the G-matrix                .... done
The number of degrees of freedom        ....  240

    -----------------------------------------------------------------
                    Redundant Internal Coordinates


    -----------------------------------------------------------------
         Definition                    Initial Value    Approx d2E/dq
    -----------------------------------------------------------------
      1. B(B   1,B   0)                  1.5000         0.559597   
      2. B(B   2,B   1)                  1.5000         0.559597   
      3. B(B   3,B   2)                  1.5000         0.559597   
      4. B(B   4,B   3)                  1.5000         0.559597   
      5. B(B   5,B   4)                  1.5000         0.559597   
      6. B(B   5,B   0)                  1.5000         0.559597   
      7. B(B   6,B   0)                  2.0908         0.063863   
      8. B(B   6,B   1)                  2.0908         0.063863   
      9. B(B   7,B   6)                  1.3800         0.869617   
     10. B(B   7,B   2)                  2.0908         0.063863   
     11. B(B   7,B   1)                  2.0908         0.063863   
     12. B(B   8,B   7)                  1.3800         0.869617   
     13. B(B   8,B   3)                  2.0908         0.063863   
     14. B(B   8,B   2)                  2.0908         0.063863   
     15. B(B   9,B   3)                  2.0908         0.063863   
     16. B(B   9,B   8)                  1.3800         0.869617   
     17. B(B   9,B   4)                  2.0908         0.063863   
     18. B(B  10,B   9)                  1.3800         0.869617   
     19. B(B  10,B   5)                  2.0908         0.063863   
     20. B(B  10,B   4)                  2.0908         0.063863   
     21. B(B  11,B  10)                  1.3800         0.869617   
     22. B(B  11,B   6)                  1.3800         0.869617   
     23. B(B  11,B   5)                  2.0908         0.063863   
     24. B(B  11,B   0)                  2.0908         0.063863   
     25. A(B   1,B   0,B   5)          120.0000         0.432737   
     26. A(B   6,B   0,B  11)           38.5391         0.217684   
     27. A(B   5,B   0,B  11)           68.9790         0.299317   
     28. A(B   1,B   0,B   6)           68.9790         0.299317   
     29. A(B   1,B   0,B  11)          102.2917         0.299317   
     30. A(B   5,B   0,B   6)          102.2917         0.299317   
     31. A(B   0,B   1,B   6)           68.9790         0.299317   
     32. A(B   0,B   1,B   2)          120.0000         0.432737   
     33. A(B   2,B   1,B   7)           68.9790         0.299317   
     34. A(B   6,B   1,B   7)           38.5391         0.217684   
     35. A(B   2,B   1,B   6)          102.2917         0.299317   
     36. A(B   0,B   1,B   7)          102.2917         0.299317   
     37. A(B   1,B   2,B   3)          120.0000         0.432737   
     38. A(B   7,B   2,B   8)           38.5391         0.217684   
     39. A(B   1,B   2,B   7)           68.9790         0.299317   
     40. A(B   3,B   2,B   8)           68.9790         0.299317   
     41. A(B   3,B   2,B   7)          102.2917         0.299317   
     42. A(B   1,B   2,B   8)          102.2917         0.299317   
     43. A(B   2,B   3,B   8)           68.9790         0.299317   
     44. A(B   4,B   3,B   9)           68.9790         0.299317   
     45. A(B   4,B   3,B   8)          102.2917         0.299317   
     46. A(B   2,B   3,B   4)          120.0000         0.432737   
     47. A(B   8,B   3,B   9)           38.5391         0.217684   
     48. A(B   2,B   3,B   9)          102.2917         0.299317   
     49. A(B   5,B   4,B  10)           68.9790         0.299317   
     50. A(B   9,B   4,B  10)           38.5391         0.217684   
     51. A(B   3,B   4,B  10)          102.2917         0.299317   
     52. A(B   3,B   4,B   5)          120.0000         0.432737   
     53. A(B   5,B   4,B   9)          102.2917         0.299317   
     54. A(B   3,B   4,B   9)           68.9790         0.299317   
     55. A(B  10,B   5,B  11)           38.5391         0.217684   
     56. A(B   0,B   5,B  11)           68.9790         0.299317   
     57. A(B   0,B   5,B   4)          120.0000         0.432737   
     58. A(B   4,B   5,B  10)           68.9790         0.299317   
     59. A(B   0,B   5,B  10)          102.2917         0.299317   
     60. A(B   4,B   5,B  11)          102.2917         0.299317   
     61. A(B   0,B   6,B  11)           70.7304         0.321385   
     62. A(B   1,B   6,B  11)          106.9352         0.321385   
     63. A(B   0,B   6,B   1)           42.0420         0.217684   
     64. A(B   1,B   6,B   7)           70.7304         0.321385   
     65. A(B   0,B   6,B   7)          106.9352         0.321385   
     66. A(B   7,B   6,B  11)          120.0000         0.508654   
     67. A(B   6,B   7,B   8)          120.0000         0.508654   
     68. A(B   2,B   7,B   8)           70.7304         0.321385   
     69. A(B   1,B   7,B   8)          106.9352         0.321385   
     70. A(B   2,B   7,B   6)          106.9352         0.321385   
     71. A(B   1,B   7,B   6)           70.7304         0.321385   
     72. A(B   1,B   7,B   2)           42.0420         0.217684   
     73. A(B   2,B   8,B   7)           70.7304         0.321385   
     74. A(B   2,B   8,B   3)           42.0420         0.217684   
     75. A(B   7,B   8,B   9)          120.0000         0.508654   
     76. A(B   3,B   8,B   9)           70.7304         0.321385   
     77. A(B   2,B   8,B   9)          106.9352         0.321385   
     78. A(B   3,B   8,B   7)          106.9352         0.321385   
     79. A(B   8,B   9,B  10)          120.0000         0.508654   
     80. A(B   4,B   9,B  10)           70.7304         0.321385   
     81. A(B   3,B   9,B  10)          106.9352         0.321385   
     82. A(B   4,B   9,B   8)          106.9352         0.321385   
     83. A(B   3,B   9,B   8)           70.7304         0.321385   
     84. A(B   3,B   9,B   4)           42.0420         0.217684   
     85. A(B   5,B  10,B   9)          106.9352         0.321385   
     86. A(B   4,B  10,B   9)           70.7304         0.321385   
     87. A(B   4,B  10,B   5)           42.0420         0.217684   
     88. A(B   9,B  10,B  11)          120.0000         0.508654   
     89. A(B   5,B  10,B  11)           70.7304         0.321385   
     90. A(B   4,B  10,B  11)          106.9352         0.321385   
     91. A(B   0,B  11,B   5)           42.0420         0.217684   
     92. A(B   6,B  11,B  10)          120.0000         0.508654   
     93. A(B   5,B  11,B  10)           70.7304         0.321385   
     94. A(B   0,B  11,B  10)          106.9352         0.321385   
     95. A(B   5,B  11,B   6)          106.9352         0.321385   
     96. A(B   0,B  11,B   6)           70.7304         0.321385   
     97. D(B   2,B   1,B   0,B  11)    -72.6550         0.016915   
     98. D(B   2,B   1,B   0,B   5)      0.0000         0.016915   
     99. D(B   6,B   1,B   0,B  11)     19.7225         0.016915   
    100. D(B   2,B   1,B   0,B   6)    -92.3775         0.016915   
    101. D(B   7,B   1,B   0,B   5)     72.6550         0.016915   
    102. D(B   6,B   1,B   0,B   5)     92.3775         0.016915   
    103. D(B   8,B   2,B   1,B   0)     72.6550         0.016915   
    104. D(B   3,B   2,B   1,B   6)    -72.6550         0.016915   
    105. D(B   3,B   2,B   1,B   0)      0.0000         0.016915   
    106. D(B   7,B   2,B   1,B   0)     92.3775         0.016915   
    107. D(B   7,B   2,B   1,B   6)     19.7225         0.016915   
    108. D(B   3,B   2,B   1,B   7)    -92.3775         0.016915   
    109. D(B   4,B   3,B   2,B   8)    -92.3775         0.016915   
    110. D(B   8,B   3,B   2,B   1)     92.3775         0.016915   
    111. D(B   4,B   3,B   2,B   7)    -72.6550         0.016915   
    112. D(B   4,B   3,B   2,B   1)      0.0000         0.016915   
    113. D(B   9,B   3,B   2,B   1)     72.6550         0.016915   
    114. D(B   8,B   3,B   2,B   7)     19.7225         0.016915   
    115. D(B   5,B   4,B   3,B   9)    -92.3775         0.016915   
    116. D(B   9,B   4,B   3,B   2)     92.3775         0.016915   
    117. D(B   5,B   4,B   3,B   2)      0.0000         0.016915   
    118. D(B   5,B   4,B   3,B   8)    -72.6550         0.016915   
    119. D(B   9,B   4,B   3,B   8)     19.7225         0.016915   
    120. D(B  10,B   4,B   3,B   2)     72.6550         0.016915   
    121. D(B   4,B   5,B   0,B  11)     92.3775         0.016915   
    122. D(B  10,B   5,B   0,B   6)     -0.0000         0.016915   
    123. D(B  10,B   5,B   0,B  11)     19.7225         0.016915   
    124. D(B   4,B   5,B   0,B   6)     72.6550         0.016915   
    125. D(B   4,B   5,B   0,B   1)      0.0000         0.016915   
    126. D(B   0,B   5,B   4,B   3)      0.0000         0.016915   
    127. D(B  10,B   5,B   0,B   1)    -72.6550         0.016915   
    128. D(B  10,B   5,B   4,B   9)     19.7225         0.016915   
    129. D(B   0,B   5,B   4,B  10)    -92.3775         0.016915   
    130. D(B  10,B   5,B   4,B   3)     92.3775         0.016915   
    131. D(B  11,B   5,B   4,B   3)     72.6550         0.016915   
    132. D(B   0,B   5,B   4,B   9)    -72.6550         0.016915   
    133. D(B  11,B   6,B   1,B   2)     86.1959         0.010000   
    134. D(B   7,B   6,B   1,B   2)    -30.3704         0.010000   
    135. D(B   7,B   6,B   1,B   0)   -148.0473         0.010000   
    136. D(B   0,B   6,B   1,B   7)    148.0473         0.010000   
    137. D(B   0,B   6,B   1,B   2)    117.6769         0.010000   
    138. D(B  11,B   6,B   0,B   1)    148.0473         0.010000   
    139. D(B   7,B   6,B   0,B   1)     31.4810         0.010000   
    140. D(B   1,B   6,B   0,B  11)   -148.0473         0.010000   
    141. D(B   1,B   6,B   0,B   5)   -117.6769         0.010000   
    142. D(B  11,B   6,B   1,B   0)    -31.4810         0.010000   
    143. D(B   7,B   6,B   0,B   5)    -86.1959         0.010000   
    144. D(B   7,B   6,B   0,B  11)   -116.5664         0.010000   
    145. D(B   1,B   7,B   6,B  11)    -98.8863         0.042566   
    146. D(B   1,B   7,B   6,B   0)    -21.7446         0.042566   
    147. D(B   8,B   7,B   2,B   1)   -148.0473         0.010000   
    148. D(B   1,B   7,B   2,B   3)    117.6769         0.010000   
    149. D(B   1,B   7,B   2,B   8)    148.0473         0.010000   
    150. D(B   6,B   7,B   2,B   3)     86.1959         0.010000   
    151. D(B   8,B   7,B   1,B   2)     31.4810         0.010000   
    152. D(B   6,B   7,B   2,B   8)    116.5664         0.010000   
    153. D(B   8,B   7,B   1,B   0)    -86.1959         0.010000   
    154. D(B   6,B   7,B   1,B   2)    148.0473         0.010000   
    155. D(B   6,B   7,B   2,B   1)    -31.4810         0.010000   
    156. D(B   2,B   7,B   1,B   0)   -117.6769         0.010000   
    157. D(B   2,B   7,B   1,B   6)   -148.0473         0.010000   
    158. D(B   2,B   7,B   6,B   0)      0.0000         0.042566   
    159. D(B   6,B   7,B   1,B   0)     30.3704         0.010000   
    160. D(B   8,B   7,B   6,B   0)     77.1417         0.042566   
    161. D(B   2,B   7,B   6,B  11)    -77.1417         0.042566   
    162. D(B   2,B   7,B   6,B   1)     21.7446         0.042566   
    163. D(B   9,B   8,B   7,B   1)     77.1417         0.042566   
    164. D(B   3,B   8,B   7,B   6)    -77.1417         0.042566   
    165. D(B   3,B   8,B   7,B   2)     21.7446         0.042566   
    166. D(B   3,B   8,B   7,B   1)     -0.0000         0.042566   
    167. D(B   2,B   8,B   7,B   6)    -98.8863         0.042566   
    168. D(B   9,B   8,B   3,B   2)   -148.0473         0.010000   
    169. D(B   7,B   8,B   3,B   9)    116.5664         0.010000   
    170. D(B   7,B   8,B   3,B   4)     86.1959         0.010000   
    171. D(B   7,B   8,B   3,B   2)    -31.4810         0.010000   
    172. D(B   2,B   8,B   3,B   9)    148.0473         0.010000   
    173. D(B   2,B   8,B   3,B   4)    117.6769         0.010000   
    174. D(B   2,B   8,B   7,B   1)    -21.7446         0.042566   
    175. D(B   9,B   8,B   2,B   3)     31.4810         0.010000   
    176. D(B   7,B   8,B   2,B   1)     30.3704         0.010000   
    177. D(B   3,B   8,B   2,B   7)   -148.0473         0.010000   
    178. D(B   3,B   8,B   2,B   1)   -117.6769         0.010000   
    179. D(B   9,B   8,B   2,B   1)    -86.1959         0.010000   
    180. D(B   7,B   8,B   2,B   3)    148.0473         0.010000   
    181. D(B  10,B   9,B   8,B   2)     77.1417         0.042566   
    182. D(B   4,B   9,B   8,B   7)    -77.1417         0.042566   
    183. D(B   4,B   9,B   8,B   3)     21.7446         0.042566   
    184. D(B   4,B   9,B   8,B   2)      0.0000         0.042566   
    185. D(B   3,B   9,B   8,B   7)    -98.8863         0.042566   
    186. D(B   3,B   9,B   8,B   2)    -21.7446         0.042566   
    187. D(B  10,B   9,B   4,B   3)   -148.0473         0.010000   
    188. D(B   8,B   9,B   4,B  10)    116.5664         0.010000   
    189. D(B   8,B   9,B   4,B   5)     86.1959         0.010000   
    190. D(B   8,B   9,B   4,B   3)    -31.4810         0.010000   
    191. D(B   3,B   9,B   4,B  10)    148.0473         0.010000   
    192. D(B   3,B   9,B   4,B   5)    117.6769         0.010000   
    193. D(B  10,B   9,B   3,B   4)     31.4810         0.010000   
    194. D(B  10,B   9,B   3,B   2)    -86.1959         0.010000   
    195. D(B   8,B   9,B   3,B   4)    148.0473         0.010000   
    196. D(B   8,B   9,B   3,B   2)     30.3704         0.010000   
    197. D(B   4,B   9,B   3,B   8)   -148.0473         0.010000   
    198. D(B   4,B   9,B   3,B   2)   -117.6769         0.010000   
    199. D(B  11,B  10,B   9,B   3)     77.1417         0.042566   
    200. D(B   5,B  10,B   9,B   4)     21.7446         0.042566   
    201. D(B   5,B  10,B   9,B   3)      0.0000         0.042566   
    202. D(B   4,B  10,B   9,B   8)    -98.8863         0.042566   
    203. D(B   4,B  10,B   9,B   3)    -21.7446         0.042566   
    204. D(B  11,B  10,B   5,B   0)    -30.3704         0.010000   
    205. D(B   9,B  10,B   5,B  11)    116.5664         0.010000   
    206. D(B   9,B  10,B   5,B   4)    -31.4810         0.010000   
    207. D(B   9,B  10,B   5,B   0)     86.1959         0.010000   
    208. D(B   4,B  10,B   5,B  11)    148.0473         0.010000   
    209. D(B   4,B  10,B   5,B   0)    117.6769         0.010000   
    210. D(B  11,B  10,B   4,B   5)     31.4810         0.010000   
    211. D(B  11,B  10,B   4,B   3)    -86.1959         0.010000   
    212. D(B   9,B  10,B   4,B   5)    148.0473         0.010000   
    213. D(B   9,B  10,B   4,B   3)     30.3704         0.010000   
    214. D(B   5,B  10,B   9,B   8)    -77.1417         0.042566   
    215. D(B   5,B  10,B   4,B   9)   -148.0473         0.010000   
    216. D(B   5,B  10,B   4,B   3)   -117.6769         0.010000   
    217. D(B  10,B  11,B   0,B   5)    -31.4810         0.010000   
    218. D(B  10,B  11,B   0,B   1)     86.1959         0.010000   
    219. D(B   6,B  11,B   0,B   5)   -148.0473         0.010000   
    220. D(B   6,B  11,B   0,B   1)    -30.3704         0.010000   
    221. D(B   5,B  11,B   0,B   6)    148.0473         0.010000   
    222. D(B   0,B  11,B   5,B   4)   -117.6769         0.010000   
    223. D(B   5,B  11,B   0,B   1)    117.6769         0.010000   
    224. D(B   6,B  11,B  10,B   4)     77.1417         0.042566   
    225. D(B   5,B  11,B  10,B   4)    -21.7446         0.042566   
    226. D(B   0,B  11,B  10,B   9)    -77.1417         0.042566   
    227. D(B   0,B  11,B  10,B   5)     21.7446         0.042566   
    228. D(B  10,B  11,B   6,B   0)    -98.8863         0.042566   
    229. D(B   5,B  11,B   6,B   7)     77.1417         0.042566   
    230. D(B   5,B  11,B   6,B   1)      0.0000         0.042566   
    231. D(B   5,B  11,B   6,B   0)    -21.7446         0.042566   
    232. D(B   0,B  11,B   6,B   7)     98.8863         0.042566   
    233. D(B   0,B  11,B   6,B   1)     21.7446         0.042566   
    234. D(B   0,B  11,B  10,B   4)     -0.0000         0.042566   
    235. D(B  10,B  11,B   5,B   0)    148.0473         0.010000   
    236. D(B   6,B  11,B   5,B  10)   -116.5664         0.010000   
    237. D(B   6,B  11,B   5,B   4)    -86.1959         0.010000   
    238. D(B   5,B  11,B  10,B   9)    -98.8863         0.042566   
    239. D(B   6,B  11,B   5,B   0)     31.4810         0.010000   
    240. D(B   0,B  11,B   5,B  10)   -148.0473         0.010000   
    -----------------------------------------------------------------

Number of atoms                         .... 12
Number of degrees of freedom            .... 240


         *************************************************************
         *                GEOMETRY OPTIMIZATION CYCLE   1            *
         *************************************************************
---------------------------------
CARTESIAN COORDINATES (ANGSTROEM)
---------------------------------
  B     1.500000   -0.000000   -0.975000
  B     0.750000    1.299038   -0.975000
  B    -0.750000    1.299038   -0.975000
  B    -1.500000    0.000000   -0.975000
  B    -0.750000   -1.299038   -0.975000
  B     0.750000   -1.299038   -0.975000
  B     1.195115    0.690000    0.975000
  B     0.000000    1.380000    0.975000
  B    -1.195115    0.690000    0.975000
  B    -1.195115   -0.690000    0.975000
  B    -0.000000   -1.380000    0.975000
  B     1.195115   -0.690000    0.975000

----------------------------
CARTESIAN COORDINATES (A.U.)
----------------------------
  NO LB    ZA    FRAG    MASS        X           Y           Z
   0 B   5.0000    0    10.810    2.834589   -0.000000   -1.842483
   1 B   5.0000    0    10.810    1.417295    2.454826   -1.842483
   2 B   5.0000    0    10.810   -1.417295    2.454826   -1.842483
   3 B   5.0000    0    10.810   -2.834589    0.000000   -1.842483
   4 B   5.0000    0    10.810   -1.417295   -2.454826   -1.842483
   5 B   5.0000    0    10.810    1.417295   -2.454826   -1.842483
   6 B   5.0000    0    10.810    2.258440    1.303911    1.842483
   7 B   5.0000    0    10.810    0.000000    2.607822    1.842483
   8 B   5.0000    0    10.810   -2.258440    1.303911    1.842483
   9 B   5.0000    0    10.810   -2.258440   -1.303911    1.842483
  10 B   5.0000    0    10.810   -0.000000   -2.607822    1.842483
  11 B   5.0000    0    10.810    2.258440   -1.303911    1.842483

      -----------------------------------------------------------      
     |                   =====================                   |     
     |                           x T B                           |     
     |                   =====================                   |     
     |                         S. Grimme                         |     
     |          Mulliken Center for Theoretical Chemistry        |     
     |                    University of Bonn                     |     
      -----------------------------------------------------------      

   * xtb version 6.6.1 (unknown) compiled by 'builduser@buildhost' on 2023-08-07

   xtb is free software: you can redistribute it and/or modify it under
   the terms of the GNU Lesser General Public License as published by
   the Free Software Foundation, either version 3 of the License, or
   (at your option) any later version.
   
   xtb is distributed in the hope that it will be useful,
   but WITHOUT ANY WARRANTY; without even the implied warranty of
   MERCHANTABILITY or FITNESS FOR A PARTICULAR PURPOSE.  See the
   GNU Lesser General Public License for more details.
   
   Cite this work as:
   * C. Bannwarth, E. Caldeweyher, S. Ehlert, A. Hansen, P. Pracht,
     J. Seibert, S. Spicher, S. Grimme, WIREs Comput. Mol. Sci., 2020, 11,
     e01493. DOI: 10.1002/wcms.1493
   
   for GFN2-xTB:
   * C. Bannwarth, S. Ehlert and S. Grimme., J. Chem. Theory Comput., 2019,
     15, 1652-1671. DOI: 10.1021/acs.jctc.8b01176
   for GFN1-xTB:
   * S. Grimme, C. Bannwarth, P. Shushkov, J. Chem. Theory Comput., 2017,
     13, 1989-2009. DOI: 10.1021/acs.jctc.7b00118
   for GFN0-xTB:
   * P. Pracht, E. Caldeweyher, S. Ehlert, S. Grimme, ChemRxiv, 2019, preprint.
     DOI: 10.26434/chemrxiv.8326202.v1
   for GFN-FF:
   * S. Spicher and S. Grimme, Angew. Chem. Int. Ed., 2020, 59, 15665-15673.
     DOI: 10.1002/anie.202004239
   
   for ALPB and GBSA implicit solvation:
   * S. Ehlert, M. Stahn, S. Spicher, S. Grimme, J. Chem. Theory Comput.,
     2021, 17, 4250-4261. DOI: 10.1021/acs.jctc.1c00471
   
   for DFT-D4:
   * E. Caldeweyher, C. Bannwarth and S. Grimme, J. Chem. Phys., 2017,
     147, 034112. DOI: 10.1063/1.4993215
   * E. Caldeweyher, S. Ehlert, A. Hansen, H. Neugebauer, S. Spicher,
     C. Bannwarth and S. Grimme, J. Chem. Phys., 2019, 150, 154122.
     DOI: 10.1063/1.5090222
   * E. Caldeweyher, J.-M. Mewes, S. Ehlert and S. Grimme, Phys. Chem. Chem. Phys.
     2020, 22, 8499-8512. DOI: 10.1039/D0CP00502A
   
   for sTDA-xTB:
   * S. Grimme and C. Bannwarth, J. Chem. Phys., 2016, 145, 054103.
     DOI: 10.1063/1.4959605
   
   in the mass-spec context:
   * V. Asgeirsson, C. Bauer and S. Grimme, Chem. Sci., 2017, 8, 4879.
     DOI: 10.1039/c7sc00601b
   * J. Koopman and S. Grimme, ACS Omega 2019, 4, 12, 15120-15133.
     DOI: 10.1021/acsomega.9b02011
   
   for metadynamics refer to:
   * S. Grimme, J. Chem. Theory Comput., 2019, 155, 2847-2862
     DOI: 10.1021/acs.jctc.9b00143
   
   for SPH calculations refer to:
   * S. Spicher and S. Grimme, J. Chem. Theory Comput., 2021, 17, 1701-1714
     DOI: 10.1021/acs.jctc.0c01306
   
   with help from (in alphabetical order)
   P. Atkinson, C. Bannwarth, F. Bohle, G. Brandenburg, E. Caldeweyher
   M. Checinski, S. Dohm, S. Ehlert, S. Ehrlich, I. Gerasimov, C. Hölzer
   A. Katbashev, J. Koopman, C. Lavigne, S. Lehtola, F. März, M. Müller,
   F. Musil, H. Neugebauer, J. Pisarek, C. Plett, P. Pracht, F. Pultar,
   J. Seibert, P. Shushkov, S. Spicher, M. Stahn, M. Steiner, T. Strunk,
   J. Stückrath, T. Rose, and J. Unsleber
   
 * started run on 2026/04/17 at 12:13:52.876     

           -------------------------------------------------
          |                Calculation Setup                |
           -------------------------------------------------

          program call               : /usr/bin/xtb double_ring_6_6_d1.50_m1_XTB.xyz --grad -c 0 -u 0 -P 1 --namespace double_ring_6_6_d1.50_m1 --input double_ring_6_6_d1.50_m1_XTB.input.tmp --acc 0.200000
          calculation namespace      : double_ring_6_6_d1.50_m1
          coordinate file            : double_ring_6_6_d1.50_m1_XTB.xyz
          omp threads                :                     1

   ID    Z sym.   atoms
    1    5 B      1-12

molecular fragmentation (1/2 indicates fragments):
111111111112
# atoms in fragment 1/2:    11     1
 fragment masses (1/2) :      118.92       10.81
CMA distance (Bohr)    :   3.483
constraining FC (au)   :  0.0500

           -------------------------------------------------
          |                 G F N 2 - x T B                 |
           -------------------------------------------------

        Reference                      10.1021/acs.jctc.8b01176
      * Hamiltonian:
        H0-scaling (s, p, d)           1.850000    2.230000    2.230000
        zeta-weighting                 0.500000
      * Dispersion:
        s8                             2.700000
        a1                             0.520000
        a2                             5.000000
        s9                             5.000000
      * Repulsion:
        kExp                           1.500000    1.000000
        rExp                           1.000000
      * Coulomb:
        alpha                          2.000000
        third order                    shell-resolved
        anisotropic                    true
        a3                             3.000000
        a5                             4.000000
        cn-shift                       1.200000
        cn-exp                         4.000000
        max-rad                        5.000000


          ...................................................
          :                      SETUP                      :
          :.................................................:
          :  # basis functions                  48          :
          :  # atomic orbitals                  48          :
          :  # shells                           24          :
          :  # electrons                        36          :
          :  max. iterations                   250          :
          :  Hamiltonian                  GFN2-xTB          :
          :  restarted?                      false          :
          :  GBSA solvation                  false          :
          :  PC potential                    false          :
          :  electronic temp.          300.0000000     K    :
          :  accuracy                    0.2000000          :
          :  -> integral cutoff          0.3198970E+02      :
          :  -> integral neglect         0.2000000E-08      :
          :  -> SCF convergence          0.2000000E-06 Eh   :
          :  -> wf. convergence          0.2000000E-04 e    :
          :  Broyden damping             0.4000000          :
          ...................................................

 iter      E             dE          RMSdq      gap      omega  full diag
   1    -14.5793494 -0.145793E+02  0.228E+01    0.00       0.0  T
   2    -14.5691300  0.102194E-01  0.139E+01    0.00       1.0  T
   3    -13.8804910  0.688639E+00  0.465E+00    0.00       1.0  T
   4    -14.5882999 -0.707809E+00  0.998E-01    0.00       1.0  T
   5    -14.5876334  0.666444E-03  0.128E+00    0.00       1.0  T
   6    -14.5889866 -0.135317E-02  0.268E-02    0.00       1.1  T
   7    -14.5889872 -0.636825E-06  0.273E-02    0.00       1.1  T
   8    -14.5889872  0.409866E-07  0.458E-03    0.00       6.3  T
   9    -14.5889872  0.400068E-08  0.442E-03    0.00       6.5  T
  10    -14.5889873 -0.165004E-06  0.123E-03    0.00      23.5  T
  11    -14.5889873 -0.624992E-09  0.116E-04    0.00     247.9  T
  12    -14.5889873 -0.707523E-11  0.368E-05    0.00     784.4  T

   *** convergence criteria satisfied after 12 iterations ***

         #    Occupation            Energy/Eh            Energy/eV
      -------------------------------------------------------------
         1        2.0000           -0.4169398             -11.3455
       ...           ...                  ...                  ...
        12        2.0000           -0.2856436              -7.7728
        13        2.0000           -0.2808130              -7.6413
        14        2.0000           -0.2772915              -7.5455
        15        2.0000           -0.2611087              -7.1051
        16        2.0000           -0.2611087              -7.1051
        17        2.0000           -0.2393628              -6.5134
        18        1.0000           -0.2093981              -5.6980 (HOMO)
        19        1.0000           -0.2093980              -5.6980 (LUMO)
        20                         -0.1525381              -4.1508
        21                         -0.1525381              -4.1508
        22                         -0.1035365              -2.8174
        23                         -0.0888092              -2.4166
       ...                                ...                  ...
        48                          2.5992385              70.7289
      -------------------------------------------------------------
                  HL-Gap            0.0000000 Eh            0.0000 eV
             Fermi-level           -0.2093981 Eh           -5.6980 eV

 SCC (total)                   0 d,  0 h,  0 min,  0.020 sec
 SCC setup                      ...        0 min,  0.000 sec (  0.926%)
 Dispersion                     ...        0 min,  0.000 sec (  0.608%)
 classical contributions        ...        0 min,  0.000 sec (  0.209%)
 integral evaluation            ...        0 min,  0.002 sec ( 11.998%)
 iterations                     ...        0 min,  0.011 sec ( 53.908%)
 molecular gradient             ...        0 min,  0.006 sec ( 30.445%)
 printout                       ...        0 min,  0.000 sec (  1.775%)

         :::::::::::::::::::::::::::::::::::::::::::::::::::::
         ::                     SUMMARY                     ::
         :::::::::::::::::::::::::::::::::::::::::::::::::::::
         :: total energy             -14.064495460681 Eh    ::
         :: gradient norm              0.439582521575 Eh/a0 ::
         :: HOMO-LUMO gap              0.000000486986 eV    ::
         ::.................................................::
         :: SCC energy               -14.588987343604 Eh    ::
         :: -> isotropic ES            0.064121191971 Eh    ::
         :: -> anisotropic ES          0.002244803329 Eh    ::
         :: -> anisotropic XC         -0.029399098542 Eh    ::
         :: -> dispersion             -0.010779312433 Eh    ::
         :: repulsion energy           0.524489463263 Eh    ::
         :: add. restraining           0.000000000000 Eh    ::
         :: total charge               0.000000000000 e     ::
         :::::::::::::::::::::::::::::::::::::::::::::::::::::


Property printout bound to 'properties.out'

           -------------------------------------------------
          | TOTAL ENERGY              -14.064495460681 Eh   |
          | GRADIENT NORM               0.439582521575 Eh/α |
          | HOMO-LUMO GAP               0.000000486986 eV   |
           -------------------------------------------------

------------------------------------------------------------------------
 * finished run on 2026/04/17 at 12:13:52.909     
------------------------------------------------------------------------
 total:
 * wall-time:     0 d,  0 h,  0 min,  0.033 sec
 *  cpu-time:     0 d,  0 h,  0 min,  0.033 sec
 * ratio c/w:     1.000 speedup
 SCF:
 * wall-time:     0 d,  0 h,  0 min,  0.020 sec
 *  cpu-time:     0 d,  0 h,  0 min,  0.020 sec
 * ratio c/w:     1.000 speedup


-------------------------   --------------------
FINAL SINGLE POINT ENERGY       -14.064495460680
-------------------------   --------------------


-------------
DIPOLE MOMENT
-------------
                                X             Y             Z
Total Dipole Moment    :      0.00000       0.00000       0.23400
                        -----------------------------------------
Magnitude (a.u.)       :      0.23400
Magnitude (Debye)      :      0.59478


------------------
CARTESIAN GRADIENT
------------------

   1   B   :   -0.033931971    0.000000000   -0.011466679
   2   B   :   -0.016965912   -0.029386062   -0.011466725
   3   B   :    0.016965912   -0.029386062   -0.011466725
   4   B   :    0.033931971    0.000000000   -0.011466679
   5   B   :    0.016965912    0.029386062   -0.011466725
   6   B   :   -0.016965912    0.029386062   -0.011466725
   7   B   :   -0.151964877   -0.087737023    0.011466691
   8   B   :    0.000000000   -0.175473992    0.011466747
   9   B   :    0.151964877   -0.087737023    0.011466691
  10   B   :    0.151964877    0.087737023    0.011466691
  11   B   :   -0.000000000    0.175473992    0.011466747
  12   B   :   -0.151964877    0.087737023    0.011466691

Difference to translation invariance:
           :   -0.0000000000    0.0000000000    0.0000000000

Difference to rotation invariance:
           :   -0.0000000000    0.0000000000   -0.0000000000

Norm of the Cartesian gradient     ...    0.4395825216
RMS gradient                       ...    0.0732637536
MAX gradient                       ...    0.1754739919
------------------------------------------------------------------------------
                         ORCA GEOMETRY RELAXATION STEP
------------------------------------------------------------------------------

Reading the OPT-File                    .... done
Getting information on internals        .... done
Copying old internal coords+grads       .... done
Making the new internal coordinates     .... (2022 redundants) done
Validating the new internal coordinates .... (2022 redundants) done
Calculating the B-matrix                .... done
Calculating the G,G- and P matrices     .... done
Transforming gradient to internals      .... done
Projecting the internal gradient        .... done
Number of atoms                         ....  12
Number of internal coordinates          .... 240
Current Energy                          ....   -14.064495461 Eh
Current gradient norm                   ....     0.439582522 Eh/bohr
Maximum allowed component of the step   ....  0.300
Current trust radius                    ....  0.300
Evaluating the initial hessian          ....  (Almloef) done
Projecting the Hessian                  .... done
Forming the augmented Hessian           .... done
Diagonalizing the augmented Hessian     .... done
Last element of RFO vector              ....  0.910643809
Lowest eigenvalues of augmented Hessian:
 -0.170530825  0.047420376  0.052489540  0.052640748  0.054698270
Length of the computed step             ....  0.453736431
Warning: the length of the step is outside the trust region - taking restricted step instead
The input lambda is                     ....     0.046420
   iter:   5  x=   -0.533546  g=    0.262953 f(x)=     0.044244
   iter:  10  x=   -0.592062  g=    0.143503 f(x)=     0.000000
The output lambda is                    ....    -0.592062 (10 iterations)
The final length of the internal step   ....  0.300000000
Converting the step to Cartesian space:
 Initial RMS(Int)=    0.0193649167
Transforming coordinates:
 Iter   0:  RMS(Cart)=    0.0438039965 RMS(Int)=    0.0193620403
done
Storing new coordinates                 .... done

                                .--------------------.
          ----------------------|Geometry convergence|-------------------------
          Item                value                   Tolerance       Converged
          ---------------------------------------------------------------------
          RMS gradient        0.0243944230            0.0000300000      NO
          MAX gradient        0.1251077778            0.0001000000      NO
          RMS step            0.0193649167            0.0006000000      NO
          MAX step            0.0993992135            0.0010000000      NO
          -------------------------------------------------------------------------
          ........................................................
          Max(Bonds)      0.0526      Max(Angles)    1.53
          Max(Dihed)        1.16      Max(Improp)    0.00
          ---------------------------------------------------------------------

The optimization has not yet converged - more geometry cycles are needed


    ---------------------------------------------------------------------------
                         Redundant Internal Coordinates
                            (Angstroem and degrees)

        Definition                    Value    dE/dq     Step     New-Value
    ----------------------------------------------------------------------------
     1. B(B   1,B   0)                1.5000 -0.055930  0.0218    1.5218   
     2. B(B   2,B   1)                1.5000 -0.054376  0.0214    1.5214   
     3. B(B   3,B   2)                1.5000 -0.054041  0.0213    1.5213   
     4. B(B   4,B   3)                1.5000 -0.054792  0.0215    1.5215   
     5. B(B   5,B   4)                1.5000 -0.054343  0.0214    1.5214   
     6. B(B   5,B   0)                1.5000 -0.054692  0.0214    1.5214   
     7. B(B   6,B   0)                2.0908 -0.000976 -0.0011    2.0898   
     8. B(B   6,B   1)                2.0908 -0.003369 -0.0001    2.0907   
     9. B(B   7,B   6)                1.3800 -0.124428  0.0524    1.4324   
    10. B(B   7,B   2)                2.0908 -0.004588  0.0004    2.0912   
    11. B(B   7,B   1)                2.0908 -0.004479  0.0004    2.0912   
    12. B(B   8,B   7)                1.3800 -0.124204  0.0524    1.4324   
    13. B(B   8,B   3)                2.0908 -0.003985  0.0002    2.0910   
    14. B(B   8,B   2)                2.0908 -0.004814  0.0005    2.0913   
    15. B(B   9,B   3)                2.0908 -0.004621  0.0004    2.0912   
    16. B(B   9,B   8)                1.3800 -0.124221  0.0524    1.4324   
    17. B(B   9,B   4)                2.0908 -0.003333 -0.0001    2.0907   
    18. B(B  10,B   9)                1.3800 -0.124081  0.0523    1.4323   
    19. B(B  10,B   5)                2.0908 -0.002190 -0.0006    2.0903   
    20. B(B  10,B   4)                2.0908 -0.004441  0.0003    2.0912   
    21. B(B  11,B  10)                1.3800 -0.125108  0.0526    1.4326   
    22. B(B  11,B   6)                1.3800 -0.124733  0.0525    1.4325   
    23. B(B  11,B   5)                2.0908 -0.007182  0.0014    2.0922   
    24. B(B  11,B   0)                2.0908 -0.004493  0.0003    2.0911   
    25. A(B   1,B   0,B   5)          120.00  0.000585   -0.03    119.97   
    26. A(B   6,B   0,B  11)           38.54 -0.032959    1.53     40.07   
    27. A(B   5,B   0,B  11)           68.98  0.005961   -0.27     68.71   
    28. A(B   1,B   0,B   6)           68.98  0.006583   -0.29     68.69   
    29. A(B   1,B   0,B  11)          102.29 -0.021384    1.00    103.30   
    30. A(B   5,B   0,B   6)          102.29 -0.021587    1.01    103.30   
    31. A(B   0,B   1,B   6)           68.98  0.008159   -0.36     68.62   
    32. A(B   0,B   1,B   2)          120.00 -0.000351    0.02    120.02   
    33. A(B   2,B   1,B   7)           68.98  0.006895   -0.31     68.67   
    34. A(B   6,B   1,B   7)           38.54 -0.032667    1.52     40.06   
    35. A(B   2,B   1,B   6)          102.29 -0.020928    0.98    103.27   
    36. A(B   0,B   1,B   7)          102.29 -0.019472    0.93    103.22   
    37. A(B   1,B   2,B   3)          120.00  0.000134   -0.01    119.99   
    38. A(B   7,B   2,B   8)           38.54 -0.032469    1.51     40.05   
    39. A(B   1,B   2,B   7)           68.98  0.006967   -0.31     68.67   
    40. A(B   3,B   2,B   8)           68.98  0.007171   -0.32     68.66   
    41. A(B   3,B   2,B   7)          102.29 -0.020438    0.96    103.26   
    42. A(B   1,B   2,B   8)          102.29 -0.020343    0.96    103.25   
    43. A(B   2,B   3,B   8)           68.98  0.006626   -0.30     68.68   
    44. A(B   4,B   3,B   9)           68.98  0.007466   -0.33     68.65   
    45. A(B   4,B   3,B   8)          102.29 -0.020182    0.96    103.25   
    46. A(B   2,B   3,B   4)          120.00 -0.000039   -0.00    120.00   
    47. A(B   8,B   3,B   9)           38.54 -0.032544    1.51     40.05   
    48. A(B   2,B   3,B   9)          102.29 -0.020828    0.98    103.27   
    49. A(B   5,B   4,B  10)           68.98  0.007786   -0.35     68.63   
    50. A(B   9,B   4,B  10)           38.54 -0.032580    1.52     40.06   
    51. A(B   3,B   4,B  10)          102.29 -0.020914    0.98    103.28   
    52. A(B   3,B   4,B   5)          120.00 -0.000330    0.01    120.01   
    53. A(B   5,B   4,B   9)          102.29 -0.019956    0.95    103.24   
    54. A(B   3,B   4,B   9)           68.98  0.006617   -0.30     68.68   
    55. A(B  10,B   5,B  11)           38.54 -0.032714    1.52     40.06   
    56. A(B   0,B   5,B  11)           68.98  0.007732   -0.34     68.64   
    57. A(B   0,B   5,B   4)          120.00  0.000000    0.00    120.00   
    58. A(B   4,B   5,B  10)           68.98  0.006304   -0.28     68.70   
    59. A(B   0,B   5,B  10)          102.29 -0.020099    0.95    103.24   
    60. A(B   4,B   5,B  11)          102.29 -0.021235    0.99    103.29   
    61. A(B   0,B   6,B  11)           70.73  0.015206   -0.71     70.02   
    62. A(B   1,B   6,B  11)          106.94  0.002502   -0.15    106.79   
    63. A(B   0,B   6,B   1)           42.04 -0.014742    0.65     42.69   
    64. A(B   1,B   6,B   7)           70.73  0.015932   -0.74     69.99   
    65. A(B   0,B   6,B   7)          106.94  0.003371   -0.18    106.75   
    66. A(B   7,B   6,B  11)          120.00  0.000165   -0.01    119.99   
    67. A(B   6,B   7,B   8)          120.00 -0.000096    0.00    120.00   
    68. A(B   2,B   7,B   8)           70.73  0.016153   -0.75     69.98   
    69. A(B   1,B   7,B   8)          106.94  0.004417   -0.23    106.71   
    70. A(B   2,B   7,B   6)          106.94  0.004573   -0.24    106.70   
    71. A(B   1,B   7,B   6)           70.73  0.016735   -0.78     69.95   
    72. A(B   1,B   7,B   2)           42.04 -0.013862    0.62     42.66   
    73. A(B   2,B   8,B   7)           70.73  0.016316   -0.76     69.97   
    74. A(B   2,B   8,B   3)           42.04 -0.013797    0.62     42.66   
    75. A(B   7,B   8,B   9)          120.00 -0.000128    0.00    120.00   
    76. A(B   3,B   8,B   9)           70.73  0.016042   -0.75     69.98   
    77. A(B   2,B   8,B   9)          106.94  0.004259   -0.22    106.71   
    78. A(B   3,B   8,B   7)          106.94  0.004305   -0.22    106.71   
    79. A(B   8,B   9,B  10)          120.00 -0.000155    0.00    120.00   
    80. A(B   4,B   9,B  10)           70.73  0.015889   -0.74     69.99   
    81. A(B   3,B   9,B  10)          106.94  0.003821   -0.20    106.73   
    82. A(B   4,B   9,B   8)          106.94  0.004283   -0.22    106.71   
    83. A(B   3,B   9,B   8)           70.73  0.016502   -0.77     69.96   
    84. A(B   3,B   9,B   4)           42.04 -0.014083    0.63     42.67   
    85. A(B   5,B  10,B   9)          106.94  0.004403   -0.23    106.71   
    86. A(B   4,B  10,B   9)           70.73  0.016691   -0.77     69.96   
    87. A(B   4,B  10,B   5)           42.04 -0.014090    0.63     42.67   
    88. A(B   9,B  10,B  11)          120.00  0.000158   -0.01    119.99   
    89. A(B   5,B  10,B  11)           70.73  0.014550   -0.68     70.05   
    90. A(B   4,B  10,B  11)          106.94  0.002671   -0.15    106.78   
    91. A(B   0,B  11,B   5)           42.04 -0.013694    0.61     42.65   
    92. A(B   6,B  11,B  10)          120.00  0.000055    0.00    120.00   
    93. A(B   5,B  11,B  10)           70.73  0.018164   -0.83     69.90   
    94. A(B   0,B  11,B  10)          106.94  0.006134   -0.30    106.64   
    95. A(B   5,B  11,B   6)          106.94  0.006185   -0.30    106.63   
    96. A(B   0,B  11,B   6)           70.73  0.017753   -0.82     69.91   
    97. D(B   2,B   1,B   0,B  11)    -72.65  0.002541   -0.14    -72.79   
    98. D(B   2,B   1,B   0,B   5)      0.00 -0.002021    0.09      0.09   
    99. D(B   6,B   1,B   0,B  11)     19.72 -0.018065    0.84     20.57   
   100. D(B   2,B   1,B   0,B   6)    -92.38  0.020606   -0.98    -93.36   
   101. D(B   7,B   1,B   0,B   5)     72.65 -0.004522    0.23     72.88   
   102. D(B   6,B   1,B   0,B   5)     92.38 -0.022627    1.07     93.45   
   103. D(B   8,B   2,B   1,B   0)     72.65 -0.001323    0.09     72.74   
   104. D(B   3,B   2,B   1,B   6)    -72.65  0.003125   -0.17    -72.83   
   105. D(B   3,B   2,B   1,B   0)      0.00  0.001303   -0.06     -0.06   
   106. D(B   7,B   2,B   1,B   0)     92.38 -0.019555    0.94     93.32   
   107. D(B   7,B   2,B   1,B   6)     19.72 -0.017733    0.83     20.55   
   108. D(B   3,B   2,B   1,B   7)    -92.38  0.020858   -1.00    -93.37   
   109. D(B   4,B   3,B   2,B   8)    -92.38  0.020677   -0.99    -93.37   
   110. D(B   8,B   3,B   2,B   1)     92.38 -0.020628    0.99     93.36   
   111. D(B   4,B   3,B   2,B   7)    -72.65  0.002962   -0.16    -72.82   
   112. D(B   4,B   3,B   2,B   1)      0.00  0.000049   -0.00     -0.00   
   113. D(B   9,B   3,B   2,B   1)     72.65 -0.002505    0.14     72.80   
   114. D(B   8,B   3,B   2,B   7)     19.72 -0.017715    0.83     20.55   
   115. D(B   5,B   4,B   3,B   9)    -92.38  0.020304   -0.97    -93.35   
   116. D(B   9,B   4,B   3,B   2)     92.38 -0.020987    1.00     93.38   
   117. D(B   5,B   4,B   3,B   2)      0.00 -0.000683    0.03      0.03   
   118. D(B   5,B   4,B   3,B   8)    -72.65  0.002495   -0.14    -72.79   
   119. D(B   9,B   4,B   3,B   8)     19.72 -0.017808    0.83     20.55   
   120. D(B  10,B   4,B   3,B   2)     72.65 -0.002927    0.16     72.81   
   121. D(B   4,B   5,B   0,B  11)     92.38 -0.021343    1.01     93.39   
   122. D(B  10,B   5,B   0,B   6)     -0.00  0.000938   -0.04     -0.04   
   123. D(B  10,B   5,B   0,B  11)     19.72 -0.017839    0.83     20.55   
   124. D(B   4,B   5,B   0,B   6)     72.65 -0.002566    0.14     72.80   
   125. D(B   4,B   5,B   0,B   1)      0.00  0.001387   -0.06     -0.06   
   126. D(B   0,B   5,B   4,B   3)      0.00 -0.000035    0.00      0.00   
   127. D(B  10,B   5,B   0,B   1)    -72.65  0.004891   -0.24    -72.90   
   128. D(B  10,B   5,B   4,B   9)     19.72 -0.017726    0.83     20.55   
   129. D(B   0,B   5,B   4,B  10)    -92.38  0.020772   -0.99    -93.37   
   130. D(B  10,B   5,B   4,B   3)     92.38 -0.020807    0.99     93.37   
   131. D(B  11,B   5,B   4,B   3)     72.65 -0.002497    0.14     72.79   
   132. D(B   0,B   5,B   4,B   9)    -72.65  0.003046   -0.16    -72.82   
   133. D(B  11,B   6,B   1,B   2)     86.20  0.005621   -0.26     85.94   
   134. D(B   7,B   6,B   1,B   2)    -30.37  0.003402   -0.16    -30.53   
   135. D(B   7,B   6,B   1,B   0)   -148.05 -0.003274    0.15   -147.90   
   136. D(B   0,B   6,B   1,B   7)    148.05  0.003274   -0.15    147.90   
   137. D(B   0,B   6,B   1,B   2)    117.68  0.006676   -0.31    117.37   
   138. D(B  11,B   6,B   0,B   1)    148.05  0.002717   -0.13    147.92   
   139. D(B   7,B   6,B   0,B   1)     31.48  0.000825   -0.05     31.44   
   140. D(B   1,B   6,B   0,B  11)   -148.05 -0.002717    0.13   -147.92   
   141. D(B   1,B   6,B   0,B   5)   -117.68 -0.007821    0.36   -117.31   
   142. D(B  11,B   6,B   1,B   0)    -31.48 -0.001055    0.05    -31.43   
   143. D(B   7,B   6,B   0,B   5)    -86.20 -0.006996    0.32    -85.88   
   144. D(B   7,B   6,B   0,B  11)   -116.57 -0.001892    0.09   -116.48   
   145. D(B   1,B   7,B   6,B  11)    -98.89 -0.011359    0.57    -98.32   
   146. D(B   1,B   7,B   6,B   0)    -21.74  0.008205   -0.36    -22.11   
   147. D(B   8,B   7,B   2,B   1)   -148.05 -0.003531    0.16   -147.88   
   148. D(B   1,B   7,B   2,B   3)    117.68  0.006987   -0.33    117.35   
   149. D(B   1,B   7,B   2,B   8)    148.05  0.003531   -0.16    147.88   
   150. D(B   6,B   7,B   2,B   3)     86.20  0.004937   -0.23     85.97   
   151. D(B   8,B   7,B   1,B   2)     31.48  0.000815   -0.04     31.44   
   152. D(B   6,B   7,B   2,B   8)    116.57  0.001482   -0.06    116.50   
   153. D(B   8,B   7,B   1,B   0)    -86.20 -0.005340    0.25    -85.95   
   154. D(B   6,B   7,B   1,B   2)    148.05  0.002430   -0.11    147.93   
   155. D(B   6,B   7,B   2,B   1)    -31.48 -0.002050    0.10    -31.38   
   156. D(B   2,B   7,B   1,B   0)   -117.68 -0.006155    0.29   -117.39   
   157. D(B   2,B   7,B   1,B   6)   -148.05 -0.002430    0.11   -147.93   
   158. D(B   2,B   7,B   6,B   0)      0.00  0.001075   -0.04     -0.04   
   159. D(B   6,B   7,B   1,B   0)     30.37 -0.003725    0.18     30.55   
   160. D(B   8,B   7,B   6,B   0)     77.14  0.022326   -1.05     76.10   
   161. D(B   2,B   7,B   6,B  11)    -77.14 -0.018488    0.88    -76.26   
   162. D(B   2,B   7,B   6,B   1)     21.74 -0.007130    0.32     22.06   
   163. D(B   9,B   8,B   7,B   1)     77.14  0.021574   -1.02     76.12   
   164. D(B   3,B   8,B   7,B   6)    -77.14 -0.021252    1.00    -76.14   
   165. D(B   3,B   8,B   7,B   2)     21.74 -0.007255    0.32     22.07   
   166. D(B   3,B   8,B   7,B   1)     -0.00  0.000598   -0.03     -0.03   
   167. D(B   2,B   8,B   7,B   6)    -98.89 -0.013997    0.68    -98.21   
   168. D(B   9,B   8,B   3,B   2)   -148.05 -0.003217    0.15   -147.90   
   169. D(B   7,B   8,B   3,B   9)    116.57  0.001493   -0.07    116.50   
   170. D(B   7,B   8,B   3,B   4)     86.20  0.004980   -0.24     85.96   
   171. D(B   7,B   8,B   3,B   2)    -31.48 -0.001724    0.08    -31.40   
   172. D(B   2,B   8,B   3,B   9)    148.05  0.003217   -0.15    147.90   
   173. D(B   2,B   8,B   3,B   4)    117.68  0.006704   -0.32    117.36   
   174. D(B   2,B   8,B   7,B   1)    -21.74  0.007853   -0.35    -22.10   
   175. D(B   9,B   8,B   2,B   3)     31.48  0.001070   -0.05     31.43   
   176. D(B   7,B   8,B   2,B   1)     30.37 -0.004346    0.21     30.58   
   177. D(B   3,B   8,B   2,B   7)   -148.05 -0.002619    0.12   -147.92   
   178. D(B   3,B   8,B   2,B   1)   -117.68 -0.006966    0.33   -117.35   
   179. D(B   9,B   8,B   2,B   1)    -86.20 -0.005896    0.28    -85.92   
   180. D(B   7,B   8,B   2,B   3)    148.05  0.002619   -0.12    147.92   
   181. D(B  10,B   9,B   8,B   2)     77.14  0.020950   -0.99     76.15   
   182. D(B   4,B   9,B   8,B   7)    -77.14 -0.021103    1.00    -76.15   
   183. D(B   4,B   9,B   8,B   3)     21.74 -0.007473    0.33     22.08   
   184. D(B   4,B   9,B   8,B   2)      0.00  0.000170   -0.01     -0.01   
   185. D(B   3,B   9,B   8,B   7)    -98.89 -0.013630    0.66    -98.22   
   186. D(B   3,B   9,B   8,B   2)    -21.74  0.007642   -0.34    -22.09   
   187. D(B  10,B   9,B   4,B   3)   -148.05 -0.003067    0.14   -147.90   
   188. D(B   8,B   9,B   4,B  10)    116.57  0.001443   -0.07    116.50   
   189. D(B   8,B   9,B   4,B   5)     86.20  0.004696   -0.22     85.97   
   190. D(B   8,B   9,B   4,B   3)    -31.48 -0.001623    0.08    -31.40   
   191. D(B   3,B   9,B   4,B  10)    148.05  0.003067   -0.14    147.90   
   192. D(B   3,B   9,B   4,B   5)    117.68  0.006320   -0.30    117.38   
   193. D(B  10,B   9,B   3,B   4)     31.48  0.001103   -0.06     31.42   
   194. D(B  10,B   9,B   3,B   2)    -86.20 -0.005845    0.27    -85.92   
   195. D(B   8,B   9,B   3,B   4)    148.05  0.002758   -0.13    147.92   
   196. D(B   8,B   9,B   3,B   2)     30.37 -0.004190    0.20     30.57   
   197. D(B   4,B   9,B   3,B   8)   -148.05 -0.002758    0.13   -147.92   
   198. D(B   4,B   9,B   3,B   2)   -117.68 -0.006948    0.33   -117.35   
   199. D(B  11,B  10,B   9,B   3)     77.14  0.019690   -0.93     76.21   
   200. D(B   5,B  10,B   9,B   4)     21.74 -0.007371    0.33     22.07   
   201. D(B   5,B  10,B   9,B   3)      0.00  0.000356   -0.02     -0.02   
   202. D(B   4,B  10,B   9,B   8)    -98.89 -0.013530    0.66    -98.23   
   203. D(B   4,B  10,B   9,B   3)    -21.74  0.007726   -0.34    -22.09   
   204. D(B  11,B  10,B   5,B   0)    -30.37  0.003352   -0.16    -30.53   
   205. D(B   9,B  10,B   5,B  11)    116.57  0.001528   -0.07    116.50   
   206. D(B   9,B  10,B   5,B   4)    -31.48 -0.001825    0.09    -31.39   
   207. D(B   9,B  10,B   5,B   0)     86.20  0.004880   -0.23     85.97   
   208. D(B   4,B  10,B   5,B  11)    148.05  0.003354   -0.16    147.89   
   209. D(B   4,B  10,B   5,B   0)    117.68  0.006705   -0.32    117.36   
   210. D(B  11,B  10,B   4,B   5)     31.48  0.000320   -0.02     31.46   
   211. D(B  11,B  10,B   4,B   3)    -86.20 -0.006358    0.29    -85.90   
   212. D(B   9,B  10,B   4,B   5)    148.05  0.002617   -0.12    147.93   
   213. D(B   9,B  10,B   4,B   3)     30.37 -0.004062    0.19     30.56   
   214. D(B   5,B  10,B   9,B   8)    -77.14 -0.020901    0.99    -76.16   
   215. D(B   5,B  10,B   4,B   9)   -148.05 -0.002617    0.12   -147.93   
   216. D(B   5,B  10,B   4,B   3)   -117.68 -0.006678    0.31   -117.36   
   217. D(B  10,B  11,B   0,B   5)    -31.48 -0.002392    0.11    -31.37   
   218. D(B  10,B  11,B   0,B   1)     86.20  0.005336   -0.25     85.95   
   219. D(B   6,B  11,B   0,B   5)   -148.05 -0.003928    0.17   -147.87   
   220. D(B   6,B  11,B   0,B   1)    -30.37  0.003800   -0.18    -30.56   
   221. D(B   5,B  11,B   0,B   6)    148.05  0.003928   -0.17    147.87   
   222. D(B   0,B  11,B   5,B   4)   -117.68 -0.007132    0.33   -117.34   
   223. D(B   5,B  11,B   0,B   1)    117.68  0.007728   -0.36    117.32   
   224. D(B   6,B  11,B  10,B   4)     77.14  0.024985   -1.16     75.98   
   225. D(B   5,B  11,B  10,B   4)    -21.74  0.008052   -0.36    -22.10   
   226. D(B   0,B  11,B  10,B   9)    -77.14 -0.019912    0.94    -76.20   
   227. D(B   0,B  11,B  10,B   5)     21.74 -0.007032    0.31     22.06   
   228. D(B  10,B  11,B   6,B   0)    -98.89 -0.016655    0.79    -98.10   
   229. D(B   5,B  11,B   6,B   7)     77.14  0.019821   -0.93     76.21   
   230. D(B   5,B  11,B   6,B   1)      0.00 -0.000136    0.01      0.01   
   231. D(B   5,B  11,B   6,B   0)    -21.74  0.007818   -0.35    -22.09   
   232. D(B   0,B  11,B   6,B   7)     98.89  0.012004   -0.59     98.30   
   233. D(B   0,B  11,B   6,B   1)     21.74 -0.007954    0.35     22.10   
   234. D(B   0,B  11,B  10,B   4)     -0.00  0.001021   -0.05     -0.05   
   235. D(B  10,B  11,B   5,B   0)    148.05  0.002689   -0.12    147.92   
   236. D(B   6,B  11,B   5,B  10)   -116.57 -0.001592    0.06   -116.50   
   237. D(B   6,B  11,B   5,B   4)    -86.20 -0.006035    0.27    -85.92   
   238. D(B   5,B  11,B  10,B   9)    -98.89 -0.012880    0.63    -98.26   
   239. D(B   6,B  11,B   5,B   0)     31.48  0.001097   -0.06     31.42   
   240. D(B   0,B  11,B   5,B  10)   -148.05 -0.002689    0.12   -147.92   
    ----------------------------------------------------------------------------

Geometry step timings:
Preparation and reading OPT file:      0.000 s ( 0.183 %)
Internal coordinates            :      0.000 s ( 0.341 %)
B/P matrices and projection     :      0.004 s (18.199 %)
Hessian update/contruction      :      0.004 s (17.133 %)
Making the step                 :      0.011 s (52.921 %)
Converting the step to Cartesian:      0.000 s ( 1.869 %)
Storing new data                :      0.000 s ( 0.428 %)
Checking convergence            :      0.000 s ( 0.428 %)
Final printing                  :      0.002 s ( 8.489 %)
Total time                      :      0.021 s

Time for energy+gradient        :      0.044 s
Time for complete geometry iter :      0.067 s

         *************************************************************
         *                GEOMETRY OPTIMIZATION CYCLE   2            *
         *************************************************************
---------------------------------
CARTESIAN COORDINATES (ANGSTROEM)
---------------------------------
  B     1.521517   -0.000326   -0.971329
  B     0.760452    1.317512   -0.972514
  B    -0.760932    1.317826   -0.972332
  B    -1.521657    0.000432   -0.972289
  B    -0.760996   -1.317228   -0.972472
  B     0.760364   -1.317695   -0.972016
  B     1.240635    0.716432    0.971460
  B    -0.000033    1.432274    0.972167
  B    -1.240332    0.715854    0.972251
  B    -1.240154   -0.716474    0.971924
  B     0.000304   -1.432556    0.971768
  B     1.240832   -0.716051    0.973381

----------------------------
CARTESIAN COORDINATES (A.U.)
----------------------------
  NO LB    ZA    FRAG    MASS        X           Y           Z
   0 B   5.0000    0    10.810    2.875251   -0.000616   -1.835545
   1 B   5.0000    0    10.810    1.437045    2.489736   -1.837785
   2 B   5.0000    0    10.810   -1.437953    2.490330   -1.837441
   3 B   5.0000    0    10.810   -2.875515    0.000816   -1.837359
   4 B   5.0000    0    10.810   -1.438074   -2.489200   -1.837706
   5 B   5.0000    0    10.810    1.436880   -2.490083   -1.836843
   6 B   5.0000    0    10.810    2.344460    1.353860    1.835793
   7 B   5.0000    0    10.810   -0.000062    2.706606    1.837129
   8 B   5.0000    0    10.810   -2.343887    1.352768    1.837288
   9 B   5.0000    0    10.810   -2.343551   -1.353939    1.836670
  10 B   5.0000    0    10.810    0.000574   -2.707139    1.836376
  11 B   5.0000    0    10.810    2.344833   -1.353140    1.839423

      -----------------------------------------------------------      
     |                   =====================                   |     
     |                           x T B                           |     
     |                   =====================                   |     
     |                         S. Grimme                         |     
     |          Mulliken Center for Theoretical Chemistry        |     
     |                    University of Bonn                     |     
      -----------------------------------------------------------      

   * xtb version 6.6.1 (unknown) compiled by 'builduser@buildhost' on 2023-08-07

   xtb is free software: you can redistribute it and/or modify it under
   the terms of the GNU Lesser General Public License as published by
   the Free Software Foundation, either version 3 of the License, or
   (at your option) any later version.
   
   xtb is distributed in the hope that it will be useful,
   but WITHOUT ANY WARRANTY; without even the implied warranty of
   MERCHANTABILITY or FITNESS FOR A PARTICULAR PURPOSE.  See the
   GNU Lesser General Public License for more details.
   
   Cite this work as:
   * C. Bannwarth, E. Caldeweyher, S. Ehlert, A. Hansen, P. Pracht,
     J. Seibert, S. Spicher, S. Grimme, WIREs Comput. Mol. Sci., 2020, 11,
     e01493. DOI: 10.1002/wcms.1493
   
   for GFN2-xTB:
   * C. Bannwarth, S. Ehlert and S. Grimme., J. Chem. Theory Comput., 2019,
     15, 1652-1671. DOI: 10.1021/acs.jctc.8b01176
   for GFN1-xTB:
   * S. Grimme, C. Bannwarth, P. Shushkov, J. Chem. Theory Comput., 2017,
     13, 1989-2009. DOI: 10.1021/acs.jctc.7b00118
   for GFN0-xTB:
   * P. Pracht, E. Caldeweyher, S. Ehlert, S. Grimme, ChemRxiv, 2019, preprint.
     DOI: 10.26434/chemrxiv.8326202.v1
   for GFN-FF:
   * S. Spicher and S. Grimme, Angew. Chem. Int. Ed., 2020, 59, 15665-15673.
     DOI: 10.1002/anie.202004239
   
   for ALPB and GBSA implicit solvation:
   * S. Ehlert, M. Stahn, S. Spicher, S. Grimme, J. Chem. Theory Comput.,
     2021, 17, 4250-4261. DOI: 10.1021/acs.jctc.1c00471
   
   for DFT-D4:
   * E. Caldeweyher, C. Bannwarth and S. Grimme, J. Chem. Phys., 2017,
     147, 034112. DOI: 10.1063/1.4993215
   * E. Caldeweyher, S. Ehlert, A. Hansen, H. Neugebauer, S. Spicher,
     C. Bannwarth and S. Grimme, J. Chem. Phys., 2019, 150, 154122.
     DOI: 10.1063/1.5090222
   * E. Caldeweyher, J.-M. Mewes, S. Ehlert and S. Grimme, Phys. Chem. Chem. Phys.
     2020, 22, 8499-8512. DOI: 10.1039/D0CP00502A
   
   for sTDA-xTB:
   * S. Grimme and C. Bannwarth, J. Chem. Phys., 2016, 145, 054103.
     DOI: 10.1063/1.4959605
   
   in the mass-spec context:
   * V. Asgeirsson, C. Bauer and S. Grimme, Chem. Sci., 2017, 8, 4879.
     DOI: 10.1039/c7sc00601b
   * J. Koopman and S. Grimme, ACS Omega 2019, 4, 12, 15120-15133.
     DOI: 10.1021/acsomega.9b02011
   
   for metadynamics refer to:
   * S. Grimme, J. Chem. Theory Comput., 2019, 155, 2847-2862
     DOI: 10.1021/acs.jctc.9b00143
   
   for SPH calculations refer to:
   * S. Spicher and S. Grimme, J. Chem. Theory Comput., 2021, 17, 1701-1714
     DOI: 10.1021/acs.jctc.0c01306
   
   with help from (in alphabetical order)
   P. Atkinson, C. Bannwarth, F. Bohle, G. Brandenburg, E. Caldeweyher
   M. Checinski, S. Dohm, S. Ehlert, S. Ehrlich, I. Gerasimov, C. Hölzer
   A. Katbashev, J. Koopman, C. Lavigne, S. Lehtola, F. März, M. Müller,
   F. Musil, H. Neugebauer, J. Pisarek, C. Plett, P. Pracht, F. Pultar,
   J. Seibert, P. Shushkov, S. Spicher, M. Stahn, M. Steiner, T. Strunk,
   J. Stückrath, T. Rose, and J. Unsleber
   
 * started run on 2026/04/17 at 12:13:52.942     

           -------------------------------------------------
          |                Calculation Setup                |
           -------------------------------------------------

          program call               : /usr/bin/xtb double_ring_6_6_d1.50_m1_XTB.xyz --grad -c 0 -u 0 -P 1 --namespace double_ring_6_6_d1.50_m1 --input double_ring_6_6_d1.50_m1_XTB.input.tmp --acc 0.200000
          calculation namespace      : double_ring_6_6_d1.50_m1
          coordinate file            : double_ring_6_6_d1.50_m1_XTB.xyz
          omp threads                :                     1

   ID    Z sym.   atoms
    1    5 B      1-12

molecular fragmentation (1/2 indicates fragments):
111111111112
# atoms in fragment 1/2:    11     1
 fragment masses (1/2) :      118.92       10.81
CMA distance (Bohr)    :   3.571
constraining FC (au)   :  0.0500

           -------------------------------------------------
          |                 G F N 2 - x T B                 |
           -------------------------------------------------

        Reference                      10.1021/acs.jctc.8b01176
      * Hamiltonian:
        H0-scaling (s, p, d)           1.850000    2.230000    2.230000
        zeta-weighting                 0.500000
      * Dispersion:
        s8                             2.700000
        a1                             0.520000
        a2                             5.000000
        s9                             5.000000
      * Repulsion:
        kExp                           1.500000    1.000000
        rExp                           1.000000
      * Coulomb:
        alpha                          2.000000
        third order                    shell-resolved
        anisotropic                    true
        a3                             3.000000
        a5                             4.000000
        cn-shift                       1.200000
        cn-exp                         4.000000
        max-rad                        5.000000

q/qsh data taken from xtbrestart
CAMM data taken from xtbrestart

          ...................................................
          :                      SETUP                      :
          :.................................................:
          :  # basis functions                  48          :
          :  # atomic orbitals                  48          :
          :  # shells                           24          :
          :  # electrons                        36          :
          :  max. iterations                   250          :
          :  Hamiltonian                  GFN2-xTB          :
          :  restarted?                       true          :
          :  GBSA solvation                  false          :
          :  PC potential                    false          :
          :  electronic temp.          300.0000000     K    :
          :  accuracy                    0.2000000          :
          :  -> integral cutoff          0.3198970E+02      :
          :  -> integral neglect         0.2000000E-08      :
          :  -> SCF convergence          0.2000000E-06 Eh   :
          :  -> wf. convergence          0.2000000E-04 e    :
          :  Broyden damping             0.4000000          :
          ...................................................

 iter      E             dE          RMSdq      gap      omega  full diag
   1    -14.5399350 -0.145399E+02  0.583E-01    0.00       0.0  T
   2    -14.5308414  0.909364E-02  0.736E-01    0.00       1.0  T
   3    -14.5410653 -0.102239E-01  0.310E-01    0.00       1.0  T
   4    -14.5397035  0.136175E-02  0.409E-01    0.02       1.0  T
   5    -14.5412979 -0.159443E-02  0.199E-02    0.00       1.5  T
   6    -14.5412989 -0.938614E-06  0.101E-02    0.00       2.9  T
   7    -14.5412962  0.266629E-05  0.194E-02    0.00       1.5  T
   8    -14.5412989 -0.269670E-05  0.104E-02    0.00       2.8  T
   9    -14.5412999 -0.986835E-06  0.309E-03    0.00       9.3  T
  10    -14.5413001 -0.227535E-06  0.681E-04    0.00      42.4  T
  11    -14.5413001  0.945963E-08  0.808E-04    0.00      35.7  T
  12    -14.5413001 -0.121966E-07  0.972E-05    0.00     297.1  T
  13    -14.5413001 -0.105445E-09  0.533E-05    0.00     541.2  T

   *** convergence criteria satisfied after 13 iterations ***

[...]
   225. D(B   5,B  11,B  10,B   4)    -29.05 -0.000004    0.00    -29.05   
   226. D(B   0,B  11,B  10,B   9)    -69.02  0.000003   -0.00    -69.02   
   227. D(B   0,B  11,B  10,B   5)     28.99 -0.000007    0.01     28.99   
   228. D(B  10,B  11,B   6,B   0)    -97.98  0.000012   -0.00    -97.98   
   229. D(B   5,B  11,B   6,B   7)     69.03  0.000004   -0.01     69.03   
   230. D(B   5,B  11,B   6,B   1)      0.06  0.000006   -0.02      0.05   
   231. D(B   5,B  11,B   6,B   0)    -28.98  0.000012   -0.02    -28.99   
   232. D(B   0,B  11,B   6,B   7)     98.01 -0.000008    0.01     98.02   
   233. D(B   0,B  11,B   6,B   1)     29.04 -0.000006    0.00     29.04   
   234. D(B   0,B  11,B  10,B   4)     -0.06 -0.000011    0.01     -0.05   
   235. D(B  10,B  11,B   5,B   0)    146.11  0.000008   -0.00    146.11   
   236. D(B   6,B  11,B   5,B  10)   -114.42 -0.000022    0.02   -114.40   
   237. D(B   6,B  11,B   5,B   4)    -82.66 -0.000012    0.02    -82.64   
   238. D(B   5,B  11,B  10,B   9)    -98.01  0.000010   -0.01    -98.02   
   239. D(B   6,B  11,B   5,B   0)     31.69 -0.000015    0.02     31.71   
   240. D(B   0,B  11,B   5,B  10)   -146.11 -0.000008    0.00   -146.11   
    ----------------------------------------------------------------------------

Geometry step timings:
Preparation and reading OPT file:      0.000 s ( 0.236 %)
Internal coordinates            :      0.000 s ( 0.338 %)
B/P matrices and projection     :      0.003 s (23.154 %)
Hessian update/contruction      :      0.003 s (20.608 %)
Making the step                 :      0.006 s (39.352 %)
Converting the step to Cartesian:      0.000 s ( 2.405 %)
Storing new data                :      0.000 s ( 0.628 %)
Checking convergence            :      0.000 s ( 1.108 %)
Final printing                  :      0.002 s (12.165 %)
Total time                      :      0.015 s
                 *******************************************************
                 *** FINAL ENERGY EVALUATION AT THE STATIONARY POINT ***
                 ***               (AFTER   16 CYCLES)               ***
                 *******************************************************
---------------------------------
CARTESIAN COORDINATES (ANGSTROEM)
---------------------------------
  B     1.590020    0.000012   -0.756957
  B     0.795185    1.376857   -0.757302
  B    -0.794787    1.376660   -0.757824
  B    -1.589752   -0.000068   -0.757827
  B    -0.794674   -1.376897   -0.757363
  B     0.795146   -1.376968   -0.757172
  B     1.376939    0.795250    0.757518
  B    -0.000249    1.589858    0.757204
  B    -1.377120    0.794880    0.757043
  B    -1.376993   -0.794942    0.757106
  B    -0.000060   -1.590126    0.757458
  B     1.376345   -0.794514    0.758116

----------------------------
CARTESIAN COORDINATES (A.U.)
----------------------------
  NO LB    ZA    FRAG    MASS        X           Y           Z
   0 B   5.0000    0    10.810    3.004702    0.000022   -1.430441
   1 B   5.0000    0    10.810    1.502683    2.601882   -1.431093
   2 B   5.0000    0    10.810   -1.501930    2.601509   -1.432080
   3 B   5.0000    0    10.810   -3.004196   -0.000129   -1.432086
   4 B   5.0000    0    10.810   -1.501717   -2.601959   -1.431208
   5 B   5.0000    0    10.810    1.502608   -2.602092   -1.430848
   6 B   5.0000    0    10.810    2.602037    1.502804    1.431502
   7 B   5.0000    0    10.810   -0.000471    3.004395    1.430908
   8 B   5.0000    0    10.810   -2.602379    1.502106    1.430604
   9 B   5.0000    0    10.810   -2.602140   -1.502223    1.430722
  10 B   5.0000    0    10.810   -0.000113   -3.004903    1.431389
  11 B   5.0000    0    10.810    2.600916   -1.501413    1.432632

      -----------------------------------------------------------      
     |                   =====================                   |     
     |                           x T B                           |     
     |                   =====================                   |     
     |                         S. Grimme                         |     
     |          Mulliken Center for Theoretical Chemistry        |     
     |                    University of Bonn                     |     
      -----------------------------------------------------------      

   * xtb version 6.6.1 (unknown) compiled by 'builduser@buildhost' on 2023-08-07

   xtb is free software: you can redistribute it and/or modify it under
   the terms of the GNU Lesser General Public License as published by
   the Free Software Foundation, either version 3 of the License, or
   (at your option) any later version.
   
   xtb is distributed in the hope that it will be useful,
   but WITHOUT ANY WARRANTY; without even the implied warranty of
   MERCHANTABILITY or FITNESS FOR A PARTICULAR PURPOSE.  See the
   GNU Lesser General Public License for more details.
   
   Cite this work as:
   * C. Bannwarth, E. Caldeweyher, S. Ehlert, A. Hansen, P. Pracht,
     J. Seibert, S. Spicher, S. Grimme, WIREs Comput. Mol. Sci., 2020, 11,
     e01493. DOI: 10.1002/wcms.1493
   
   for GFN2-xTB:
   * C. Bannwarth, S. Ehlert and S. Grimme., J. Chem. Theory Comput., 2019,
     15, 1652-1671. DOI: 10.1021/acs.jctc.8b01176
   for GFN1-xTB:
   * S. Grimme, C. Bannwarth, P. Shushkov, J. Chem. Theory Comput., 2017,
     13, 1989-2009. DOI: 10.1021/acs.jctc.7b00118
   for GFN0-xTB:
   * P. Pracht, E. Caldeweyher, S. Ehlert, S. Grimme, ChemRxiv, 2019, preprint.
     DOI: 10.26434/chemrxiv.8326202.v1
   for GFN-FF:
   * S. Spicher and S. Grimme, Angew. Chem. Int. Ed., 2020, 59, 15665-15673.
     DOI: 10.1002/anie.202004239
   
   for ALPB and GBSA implicit solvation:
   * S. Ehlert, M. Stahn, S. Spicher, S. Grimme, J. Chem. Theory Comput.,
     2021, 17, 4250-4261. DOI: 10.1021/acs.jctc.1c00471
   
   for DFT-D4:
   * E. Caldeweyher, C. Bannwarth and S. Grimme, J. Chem. Phys., 2017,
     147, 034112. DOI: 10.1063/1.4993215
   * E. Caldeweyher, S. Ehlert, A. Hansen, H. Neugebauer, S. Spicher,
     C. Bannwarth and S. Grimme, J. Chem. Phys., 2019, 150, 154122.
     DOI: 10.1063/1.5090222
   * E. Caldeweyher, J.-M. Mewes, S. Ehlert and S. Grimme, Phys. Chem. Chem. Phys.
     2020, 22, 8499-8512. DOI: 10.1039/D0CP00502A
   
   for sTDA-xTB:
   * S. Grimme and C. Bannwarth, J. Chem. Phys., 2016, 145, 054103.
     DOI: 10.1063/1.4959605
   
   in the mass-spec context:
   * V. Asgeirsson, C. Bauer and S. Grimme, Chem. Sci., 2017, 8, 4879.
     DOI: 10.1039/c7sc00601b
   * J. Koopman and S. Grimme, ACS Omega 2019, 4, 12, 15120-15133.
     DOI: 10.1021/acsomega.9b02011
   
   for metadynamics refer to:
   * S. Grimme, J. Chem. Theory Comput., 2019, 155, 2847-2862
     DOI: 10.1021/acs.jctc.9b00143
   
   for SPH calculations refer to:
   * S. Spicher and S. Grimme, J. Chem. Theory Comput., 2021, 17, 1701-1714
     DOI: 10.1021/acs.jctc.0c01306
   
   with help from (in alphabetical order)
   P. Atkinson, C. Bannwarth, F. Bohle, G. Brandenburg, E. Caldeweyher
   M. Checinski, S. Dohm, S. Ehlert, S. Ehrlich, I. Gerasimov, C. Hölzer
   A. Katbashev, J. Koopman, C. Lavigne, S. Lehtola, F. März, M. Müller,
   F. Musil, H. Neugebauer, J. Pisarek, C. Plett, P. Pracht, F. Pultar,
   J. Seibert, P. Shushkov, S. Spicher, M. Stahn, M. Steiner, T. Strunk,
   J. Stückrath, T. Rose, and J. Unsleber
   
 * started run on 2026/04/17 at 12:13:53.824     

           -------------------------------------------------
          |                Calculation Setup                |
           -------------------------------------------------

          program call               : /usr/bin/xtb double_ring_6_6_d1.50_m1_XTB.xyz --grad -c 0 -u 0 -P 1 --namespace double_ring_6_6_d1.50_m1 --input double_ring_6_6_d1.50_m1_XTB.input.tmp --acc 0.200000
          calculation namespace      : double_ring_6_6_d1.50_m1
          coordinate file            : double_ring_6_6_d1.50_m1_XTB.xyz
          omp threads                :                     1

   ID    Z sym.   atoms
    1    5 B      1-12

           -------------------------------------------------
          |                 G F N 2 - x T B                 |
           -------------------------------------------------

        Reference                      10.1021/acs.jctc.8b01176
      * Hamiltonian:
        H0-scaling (s, p, d)           1.850000    2.230000    2.230000
        zeta-weighting                 0.500000
      * Dispersion:
        s8                             2.700000
        a1                             0.520000
        a2                             5.000000
        s9                             5.000000
      * Repulsion:
        kExp                           1.500000    1.000000
        rExp                           1.000000
      * Coulomb:
        alpha                          2.000000
        third order                    shell-resolved
        anisotropic                    true
        a3                             3.000000
        a5                             4.000000
        cn-shift                       1.200000
        cn-exp                         4.000000
        max-rad                        5.000000

q/qsh data taken from xtbrestart
CAMM data taken from xtbrestart

          ...................................................
          :                      SETUP                      :
          :.................................................:
          :  # basis functions                  48          :
          :  # atomic orbitals                  48          :
          :  # shells                           24          :
          :  # electrons                        36          :
          :  max. iterations                   250          :
          :  Hamiltonian                  GFN2-xTB          :
          :  restarted?                       true          :
          :  GBSA solvation                  false          :
          :  PC potential                    false          :
          :  electronic temp.          300.0000000     K    :
          :  accuracy                    0.2000000          :
          :  -> integral cutoff          0.3198970E+02      :
          :  -> integral neglect         0.2000000E-08      :
          :  -> SCF convergence          0.2000000E-06 Eh   :
          :  -> wf. convergence          0.2000000E-04 e    :
          :  Broyden damping             0.4000000          :
          ...................................................

 iter      E             dE          RMSdq      gap      omega  full diag
   1    -14.5227741 -0.145228E+02  0.259E-03    1.38       0.0  T
   2    -14.5227741  0.273178E-07  0.216E-03    1.38      13.3  T
   3    -14.5227740  0.115671E-06  0.245E-03    1.38      11.8  T
   4    -14.5227741 -0.133112E-06  0.844E-04    1.38      34.2  T
   5    -14.5227741 -0.153190E-07  0.137E-04    1.38     210.5  T
   6    -14.5227741  0.237623E-10  0.113E-04    1.38     254.6  T

   *** convergence criteria satisfied after 6 iterations ***

         #    Occupation            Energy/Eh            Energy/eV
      -------------------------------------------------------------
         1        2.0000           -0.4137670             -11.2592
       ...           ...                  ...                  ...
        12        2.0000           -0.2716701              -7.3925
        13        2.0000           -0.2710074              -7.3745
        14        2.0000           -0.2709931              -7.3741
        15        2.0000           -0.2358076              -6.4167
        16        2.0000           -0.2357990              -6.4164
        17        2.0000           -0.2321020              -6.3158
        18        2.0000           -0.2320947              -6.3156 (HOMO)
        19                         -0.1812264              -4.9314 (LUMO)
        20                         -0.1171043              -3.1866
        21                         -0.1170811              -3.1859
        22                         -0.1138569              -3.0982
        23                         -0.1138296              -3.0975
       ...                                ...                  ...
        48                          1.0361918              28.1962
      -------------------------------------------------------------
                  HL-Gap            0.0508683 Eh            1.3842 eV
             Fermi-level           -0.2063368 Eh           -5.6147 eV

 SCC (total)                   0 d,  0 h,  0 min,  0.019 sec
 SCC setup                      ...        0 min,  0.000 sec (  0.978%)
 Dispersion                     ...        0 min,  0.000 sec (  0.585%)
 classical contributions        ...        0 min,  0.000 sec (  0.239%)
 integral evaluation            ...        0 min,  0.003 sec ( 17.933%)
 iterations                     ...        0 min,  0.008 sec ( 40.828%)
 molecular gradient             ...        0 min,  0.007 sec ( 37.297%)
 printout                       ...        0 min,  0.000 sec (  1.998%)

         :::::::::::::::::::::::::::::::::::::::::::::::::::::
         ::                     SUMMARY                     ::
         :::::::::::::::::::::::::::::::::::::::::::::::::::::
         :: total energy             -14.302215228857 Eh    ::
         :: gradient norm              0.000211375907 Eh/a0 ::
         :: HOMO-LUMO gap              1.384196834605 eV    ::
         ::.................................................::
         :: SCC energy               -14.522774128268 Eh    ::
         :: -> isotropic ES            0.081465095454 Eh    ::
         :: -> anisotropic ES          0.003859173054 Eh    ::
         :: -> anisotropic XC         -0.027707103876 Eh    ::
         :: -> dispersion             -0.011351505016 Eh    ::
         :: repulsion energy           0.220556168959 Eh    ::
         :: add. restraining           0.000000000000 Eh    ::
         :: total charge               0.000000000005 e     ::
         :::::::::::::::::::::::::::::::::::::::::::::::::::::


Property printout bound to 'properties.out'

           -------------------------------------------------
          | TOTAL ENERGY              -14.302215228857 Eh   |
          | GRADIENT NORM               0.000211375907 Eh/α |
          | HOMO-LUMO GAP               1.384196834605 eV   |
           -------------------------------------------------

------------------------------------------------------------------------
 * finished run on 2026/04/17 at 12:13:53.857     
------------------------------------------------------------------------
 total:
 * wall-time:     0 d,  0 h,  0 min,  0.033 sec
 *  cpu-time:     0 d,  0 h,  0 min,  0.033 sec
 * ratio c/w:     0.998 speedup
 SCF:
 * wall-time:     0 d,  0 h,  0 min,  0.019 sec
 *  cpu-time:     0 d,  0 h,  0 min,  0.019 sec
 * ratio c/w:     1.000 speedup


-------------------------   --------------------
FINAL SINGLE POINT ENERGY       -14.302215228860
-------------------------   --------------------


-------------
DIPOLE MOMENT
-------------
                                X             Y             Z
Total Dipole Moment    :     -0.00000       0.00000      -0.00000
                        -----------------------------------------
Magnitude (a.u.)       :      0.00000
Magnitude (Debye)      :      0.00000

                                *** OPTIMIZATION RUN DONE ***


--------------------------------
SUGGESTED CITATIONS FOR THIS RUN
--------------------------------

Below you find a list of papers that are relevant to this ORCA run
We neither can nor want to force you to cite these papers, but we appreciate if you do
You receive ORCA, which is the product of decades of hard work by many enthusiastic individuals, for free
The only thing we kindly ask in return is that you cite our papers,
We deeply appreciate it, if you show your appreciation for ORCA by not just citing the generic ORCA reference.

Please note that relegating all ORCA citations to the supporting information does *not* help us.
SI sections are not indexed - citations you put there will not count into any citation statistics
But we need these citations in order to attract the funding resources that allow us to do what we are doing

Therefore, if you are a happy ORCA user, please consider citing a few of the papers listed below in the main body of your paper

In addition to the list printed below, the program has created the file double_ring_6_6_d1.50_m1.bibtex that contains the list in bibtex format
You can import this file easily into all common literature databanks and citation aid programs

It goes without saying that in many instances, there are alternative algorithms to achieve similar
results as the ones you have gotten from ORCA. It is, of course, also the case that in some instances
ORCA just re-implements algorithms worked out by others. We are fully aware of that and we are also
fully appreciative of our colleagues work. Hence this citation list should not be read as indicating
that the listed papers, which are focused on our own work, are the only ones worth citing. It simply
meant to make it easier for users to cite ORCA specific papers. It is not a substitute for doing your
own literature research and citing the relevant literature in a scientifically appropriate manner.

List of essential papers. We consider these as the minimum necessary citations

  1. Bannwarth, C.; Ehlert, S.; Grimme, S.
     GFN2-xTB—An Accurate and Broadly Parametrized Self-Consistent Tight-Binding Quantum Chemical Method with Multipole Electrostatics and Density-Dependent Dispersion Contributions
     J. Chem. Theory Comput. 2019 15(3), 1652-1671
     doi.org/10.1021/acs.jctc.8b01176
  2. Neese, F.
     Software update: the ORCA program system, version 6.0
     WIRES Comput. Molec. Sci. 2025 15(1), e70019
     doi.org/10.1002/wcms.70019

List of papers to cite with high priority. The work reported in these papers was absolutely
necessary for this run to complete.
Our perspective: the developers of density functionals and basis sets usually get cited in chemistry papers
Good! But without the algorithms to do something with them, the functionals or basis sets would not do anything.
Hence, in our opinion, the algorithm design and method developments papers are equally worthy of getting cited

  1. Bannwarth, C.; Caldeweyher, E.; Ehlert, S.; Hansen, A.; Pracht, P.; Seibert, J.; Spicher, S.; Grimme, S.
     Extended tight-binding quantum chemistry methods
     WIRES Comput. Molec. Sci. 2020 11(2), e1493
     doi.org/10.1002/wcms.1493

List of suggested additional citations. These are papers that are important in the 'surrounding' of 
of this run, or papers that preceded the highly important papers. If you like your results we are grateful for a citation.

  1. Neese, F.
     The ORCA program system
     WIRES Comput. Molec. Sci. 2012 2(1), 73-78
     doi.org/10.1002/wcms.81
  2. Neese, F.
     Software update: the ORCA program system, version 4.0
     WIRES Comput. Molec. Sci. 2018 8(1), 1-6
     doi.org/10.1002/wcms.1327
  3. Neese, F.; Wennmohs, F.; Becker, U.; Riplinger, C.
     The ORCA quantum chemistry program package
     J. Chem. Phys. 2020 152(22), 224108
     doi.org/10.1063/5.0004608
  4. Neese, F.
     Software update: The ORCA program system—Version 5.0
     WIRES Comput. Molec. Sci. 2022 12(1), e1606
     doi.org/10.1002/wcms.1606

List of optional additional citations

  1. Neese, F.
     Approximate second-order SCF convergence for spin unrestricted wavefunctions
     Chem. Phys. Lett. 2000 325(1-3), 93-98
     doi.org/10.1016/s0009-2614(00)00662-x

Timings for individual modules:

Sum of individual times          ...        0.955 sec (=   0.016 min)
Geometry relaxation              ...        0.277 sec (=   0.005 min)  29.0 %
XTB module                       ...        0.678 sec (=   0.011 min)  71.0 %
                             ****ORCA TERMINATED NORMALLY****
TOTAL RUN TIME: 0 days 0 hours 0 minutes 1 seconds 208 msec
