
                                 *****************
                                 * O   R   C   A *
                                 *****************

                                            #,                                       
                                            ###                                      
                                            ####                                     
                                            #####                                    
                                            ######                                   
                                           ########,                                 
                                     ,,################,,,,,                         
                               ,,#################################,,                 
                          ,,##########################################,,             
                       ,#########################################, ''#####,          
                    ,#############################################,,   '####,        
                  ,##################################################,,,,####,       
                ,###########''''           ''''###############################       
              ,#####''   ,,,,##########,,,,          '''####'''          '####       
            ,##' ,,,,###########################,,,                        '##       
           ' ,,###''''                  '''############,,,                           
         ,,##''                                '''############,,,,        ,,,,,,###''
      ,#''                                            '''#######################'''  
     '                                                          ''''####''''         
             ,#######,   #######,   ,#######,      ##                                
            ,#'     '#,  ##    ##  ,#'     '#,    #''#        ,####,    ,#,          
            ##       ##  ##   ,#'  ##            #'  '#       #'       ,# #          
            ##       ##  #######   ##           ,######,      #####,      #          
            '#,     ,#'  ##    ##  '#,     ,#' ,#      #,     #,   #      #          
             '#######'   ##     ##  '#######'  #'      '#     '####' #    #          



                #########################################################
                #                        -***-                          #
                #          Department of theory and spectroscopy        #
                #                                                       #
                #                      Frank Neese                      #
                #                                                       #
                #     Directorship, Architecture, Infrastructure        #
                #                    SHARK, DRIVERS                     #
                #        Core code/Algorithms in most modules           #
                #                                                       #
                #        Max Planck Institute fuer Kohlenforschung      #
                #                Kaiser Wilhelm Platz 1                 #
                #                 D-45470 Muelheim/Ruhr                 #
                #                      Germany                          #
                #                                                       #
                #                  All rights reserved                  #
                #                        -***-                          #
                #########################################################


                         Program Version 6.1.1  -  RELEASE   -
                                (GIT: $487d211c$)
                          ($2025-11-21 10:33:24 +0100$)
                                                                         
                                  - NO-DMRG VERSION -                    
                                                                         


 With contributions from (in alphabetic order):
[Max-Planck-Institut fuer Kohlenforschung]                               
  Daniel Aravena         : Magnetic Suceptibility                        
  Michael Atanasov       : Ab Initio Ligand Field Theory (pilot matlab implementation)
  Alexander A. Auer      : GIAO ZORA, VPT2 properties, NMR spectrum      
  Ute Becker             : All parallelization in ORCA, NUMFREQ, NUMCALC 
  Giovanni Bistoni       : ED, misc. LED, open-shell LED, HFLD           
  Dmytro Bykov           : pre 5.0 version of the SCF Hessian            
  Marcos Casanova-Páez   : Triplet and SCS-CIS(D). UHF-(DLPNO)-IP/EA/STEOM-CCSD. UHF-CVS-IP/STEOM-CCSD   
  Vijay G. Chilkuri      : MRCI spin determinant printing, contributions to CSF-ICE 
  Pauline Colinet        : FMM embedding                                 
  Dipayan Datta          : RHF DLPNO-CCSD density                        
  Achintya Kumar Dutta   : EOM-CC, STEOM-CC                              
  Nicolas Foglia         : Exact transition moments, OPA infrastructure, MCD improvements    
  Dmitry Ganyushin       : Spin-Orbit,Spin-Spin,Magnetic field MRCI      
  Miquel Garcia-Rates    : C-PCM and meta-GGA Hessian, CCSD/C-PCM, Gaussian charge scheme 
  Tiago L. C. Gouveia    : GS-ROHF, GS-ROCIS                             
  Yang Guo               : DLPNO-NEVPT2, F12-NEVPT2, CIM, IAO-localization        
  Andreas Hansen         : Spin unrestricted coupled pair/coupled cluster methods 
  Ingolf Harden          : AUTO-CI MPn and infrastructure                
  Benjamin Helmich-Paris : MC-RPA, TRAH-(SCF,CASSCF), AVAS, COSX integrals, SCF dyn. polar., MC-PDFT, srDFT 
  Lee Huntington         : MR-EOM, pCC                                   
  Robert Izsak           : Overlap fitted RIJCOSX, COSX-SCS-MP3, EOM     
  Riya Kayal             : Wick's Theorem for AUTO-CI, AUTO-CI UHF-CCSDT 
  Emily Kempfer          : AUTO-CI RHF CISDT and CCSDT, approximate NEVPT4
  Christian Kollmar      : KDIIS, OOCD, Brueckner-CCSD(T), CCSD density, CASPT2, CASPT2-K, improved NEVPT2 
  Axel Koslowski         : Symmetry handling                             
  Simone Kossmann        : meta-GGA functionals, TD-DFT gradient, OOMP2, (MP2 Hessian; deprecated post 5.0) 
  Lucas Lang             : DCDCAS, Hyperfine gauge corrections, ICE-SOC+SSC
  Marvin Lechner         : AUTO-CI (C++ implementation), FIC-MRCC        
  Spencer Leger          : CASSCF response                               
  Dagmar Lenk            : GEPOL surface, SMD, ORCA-2-JSON               
  Dimitrios Liakos       : Extrapolation schemes; Compound Job, Property file
  Dimitrios Manganas     : Further ROCIS development; embedding schemes. LFT, Crystal Embedding 
  Dimitrios Pantazis     : SARC Basis sets                               
  Anastasios Papadopoulos: AUTO-CI, single reference methods and gradients 
  Taras Petrenko         : pre 6.0 DFT Hessian and TD-DFT gradient,  ECA, NRVS 
  Petra Pikulova         : Analytic Raman intensities                    
  Peter Pinski           : DLPNO-MP2, DLPNO-MP2 Gradient                 
  Shashank Vittal Rao    : ES-AILFT, MagRelax                            
  Christoph Reimann      : Effective Core Potentials                     
  Marius Retegan         : Local ZFS, SOC                                
  Christoph Riplinger    : Optimizer, TS searches, QM/MM, DLPNO-CCSD(T), (RO)-DLPNO pert. Triples 
  Michael Roemelt        : Original ROCIS implementation, recursive CI coupling coefficients
  Masaaki Saitow         : Open-shell DLPNO-CCSD energy and density      
  Barbara Sandhoefer     : DKH picture change effects                    
  Yorick L. A. Schmerwitz: GMF and freeze-and-release deltaSCF, NEB S-IDPP initial path                    
  Kantharuban Sivalingam : CASSCF convergence/infrastructure, NEVPT2, NEVPT3, NEVPT4(SD), FIC-MRCI and CEPA variants
  Bernardo de Souza      : ESD, SOC TD-DFT                               
  Georgi L. Stoychev     : AutoAux, RI-MP2 NMR, DLPNO-MP2 response, X2C  
  Van Anh Tran           : RI-MP2 g-tensors                              
  Willem Van den Heuvel  : Paramagnetic NMR                              
  Zikuan Wang            : NOTCH, Electric field optimization            
  Frank Wennmohs         : Technical directorship and infrastructure     
  Hang Xu                : AUTO-CI-Response properties                   
                                                                         
[FACCTs GmbH]                                                            
  Markus Bursch, Nicolas Foglia, Miquel Garcia-Rates, Ingolf Harden, Hagen Neugebauer, Anastasios Papadopoulos, 
  Christoph Riplinger, Bernardo de Souza, Georgi L. Stoychev                                                    
                                                                 
  APM, various basis sets, CI-OPT, improved COSX, DLPNO-Multilevel,           
  DOCKER, DRACO, updates on ESD, Fragmentator, GOAT, IRC, LR-CPCM, L-BFGS, MBIS, meta-GGA TD-DFT gradient, ML-optimized integration grids, 
  MM, NACMEs, nearIR, NEB, NEB-TS, NL-DFT gradient (VV10), 2- and 3-layer-ONIOM, interface openCOSMO-RS, QMMM,   
  Crystal-QMMM, RESP, rigid body optimization, SF, symmetry and pop. for TD-DFT, various functionals, SOLVATOR                                   
                                                                         
[Other institutions]                                                     
  V. Asgeirsson          : NEB                                           
  Christoph Bannwarth    : sTDA-DFT, sTD-DFT, PBEh-3c, B97-3c, D3        
  Giovanni Bistoni       : ETS/NOCV, ADLD/ADEX, COVALED                  
  Martin Brehm           : Molecular dynamics                            
  Ronald Cardenas        : ETS/NOCV                                      
  Martina Colucci        : COVALED                                       
  Sebastian Ehlert       : rSCAN, r2SCAN, r2SCAN-3c, D4, dhf basis sets  
  Marvin Friede          : D4 for Fr, Ra, Ac-Lr                          
  Lars Goerigk           : TD-DFT with DH, B97 family of functionals     
  Stefan Grimme          : VdW corrections, initial TS optimization, DFT functionals, gCP, sTDA/sTD-DF 
  Waldemar Hujo          : DFT-NL                                        
  H. Jonsson             : NEB                                           
  Holger Kruse           : gCP                                           
  Marcel Mueller         : wB97X-3c, vDZP basis set                      
  Hagen Neugebauer       : wr2SCAN, Native XTB                           
  Gianluca Regni         : ADLD/ADEX                                     
  Tobias Risthaus        : pre 6.0 range-separated hybrid DFT and stability analysis
  Lukas Wittmann         : regularized MP2, r2SCAN double-hybrids, wr2SCAN        
                                                                         
We gratefully acknowledge several colleagues who have allowed us to      
interface, adapt or use parts of their codes:                            
  Ed Valeev, F. Pavosevic, A. Kumar             : LibInt (2-el integral package), F12 methods 
  Garnet Chan, S. Sharma, J. Yang, R. Olivares  : DMRG                   
  Ulf Ekstrom                                   : XCFun DFT Library      
  Mihaly Kallay                                 : mrcc  (arbitrary order and MRCC methods)
  Frank Weinhold                                : gennbo (NPA and NBO analysis)           
  Simon Mueller                                 : openCOSMO-RS                            
  Christopher J. Cramer and Donald G. Truhlar   : smd solvation model                     
  S Lehtola, MJT Oliveira, MAL Marques          : LibXC Library                           
  Liviu Ungur et al                             : ANISO software                          


 Your calculation uses the libint2 library for the computation of 2-el integrals
 For citations please refer to: http://libint.valeyev.net

 Your ORCA version has been built with support for libXC version: 7.0.0
 For citations please refer to: https://libxc.gitlab.io

 This ORCA versions uses:
   CBLAS   interface :  Fast vector & matrix operations
   LAPACKE interface :  Fast linear algebra routines
   SCALAPACK package :  Parallel linear algebra routines
   Shared memory     :  Shared parallel matrices
   BLAS/LAPACK       :  OpenBLAS 0.3.29  USE64BITINT DYNAMIC_ARCH NO_AFFINITY Zen SINGLE_THREADED
        Core in use  :  Zen
   Copyright (c) 2011-2014, The OpenBLAS Project


  ***********************************
  * Starting time: Fri Apr 17 12:14:29 2026
  * Host name:     vmi3233575
  * Process ID:    335674
  * Working dir.:  /root/orca_b12_vps_pack/jobs/01_xtb/mult_1
  ***********************************

NOTE: MaxCore=500 MB was set to SCF,MP2,MDCI,CIPSI,MRCI,RASCI and CIS
      => If you want to overwrite this, your respective input block should be placed after the MaxCore statement


***************************************
The coordinates will be read from file: ../../../starts/zigzag_chain12_d2.10.xyz
***************************************


Your calculation utilizes the semiempirical GFN2-xTB method
Please cite in your paper:
Bannwarth, C.; Ehlert S.; Grimme, S. J. Chem. Theory Comput. 2019, 15, 1652.
   

================================================================================

================================================================================
                                        WARNINGS
                       Please study these warnings very carefully!
================================================================================


WARNING: Geometry Optimization
  ===> : Switching off AutoStart
         For restart on a previous wavefunction, please use MOREAD

WARNING: Found dipole moment calculation with XTB calculation
  ===> : Switching off dipole moment calculation

Environment variable XTBEXE for xtb has been set!

================================================================================
                                       INPUT FILE
================================================================================
NAME = zigzag_chain12_d2.10_m1.inp
|  1> ! GFN2-xTB TightSCF TightOpt
|  2> 
|  3> %pal
|  4>   nprocs 1
|  5> end
|  6> 
|  7> %maxcore 500
|  8> 
|  9> * xyzfile 0 1 ../../../starts/zigzag_chain12_d2.10.xyz
| 10> 
| 11>                          ****END OF INPUT****
================================================================================

                       *****************************
                       * Geometry Optimization Run *
                       *****************************

Geometry optimization settings:
Update method            Update   .... BFGS
Choice of coordinates    CoordSys .... (2022) Redundant Internals
Initial Hessian          InHess   .... Almloef's Model
Max. no of cycles        MaxIter  .... 50

Convergence Tolerances:
Energy Change            TolE     ....  1.0000e-06 Eh
Max. Gradient            TolMAXG  ....  1.0000e-04 Eh/bohr
RMS Gradient             TolRMSG  ....  3.0000e-05 Eh/bohr
Max. Displacement        TolMAXD  ....  1.0000e-03 bohr
RMS Displacement         TolRMSD  ....  6.0000e-04 bohr
Strict Convergence                .... False

------------------------------------------------------------------------------
                        ORCA OPTIMIZATION COORDINATE SETUP
------------------------------------------------------------------------------

The optimization will be done in redundant internal coordinates (2022)
Making redundant internal coordinates   ...  (2022 redundants) done
Evaluating the initial hessian          ...  (Almloef) done
Evaluating the coordinates              ...  done
Calculating the B-matrix                .... done
Calculating the G-matrix                .... done
The number of degrees of freedom        ....   31

    -----------------------------------------------------------------
                    Redundant Internal Coordinates


    -----------------------------------------------------------------
         Definition                    Initial Value    Approx d2E/dq
    -----------------------------------------------------------------
      1. B(B   1,B   0)                  2.4277         0.018529   
      2. B(B   2,B   1)                  2.4277         0.018529   
      3. B(B   3,B   2)                  2.4277         0.018529   
      4. B(B   4,B   3)                  2.4277         0.018529   
      5. B(B   5,B   4)                  2.4277         0.018529   
      6. B(B   6,B   5)                  2.4277         0.018529   
      7. B(B   7,B   6)                  2.4277         0.018529   
      8. B(B   8,B   7)                  2.4277         0.018529   
      9. B(B   9,B   8)                  2.4277         0.018529   
     10. B(B  10,B   9)                  2.4277         0.018529   
     11. B(B  11,B   5)                 11.5920         0.010000   
     12. B(B  11,B  10)                  2.4277         0.018529   
     13. A(B   0,B   1,B   2)          105.4672         0.162495   
     14. A(B   1,B   2,B   3)          105.4672         0.162495   
     15. A(B   2,B   3,B   4)          105.4672         0.162495   
     16. A(B   3,B   4,B   5)          105.4672         0.162495   
     17. A(B   4,B   5,B   6)          105.4672         0.162495   
     18. A(B   5,B   6,B   7)          105.4672         0.162495   
     19. A(B   6,B   7,B   8)          105.4672         0.162495   
     20. A(B   7,B   8,B   9)          105.4672         0.162495   
     21. A(B   8,B   9,B  10)          105.4672         0.162495   
     22. A(B   9,B  10,B  11)          105.4672         0.162495   
     23. D(B   3,B   2,B   1,B   0)    180.0000         0.010000   
     24. D(B   4,B   3,B   2,B   1)    180.0000         0.010000   
     25. D(B   5,B   4,B   3,B   2)    180.0000         0.010000   
     26. D(B   6,B   5,B   4,B   3)    180.0000         0.010000   
     27. D(B   7,B   6,B   5,B   4)    180.0000         0.010000   
     28. D(B   8,B   7,B   6,B   5)    180.0000         0.010000   
     29. D(B   9,B   8,B   7,B   6)    180.0000         0.010000   
     30. D(B  10,B   9,B   8,B   7)    180.0000         0.010000   
     31. D(B  11,B  10,B   9,B   8)    180.0000         0.010000   
    -----------------------------------------------------------------

Number of atoms                         .... 12
Number of degrees of freedom            .... 31


         *************************************************************
         *                GEOMETRY OPTIMIZATION CYCLE   1            *
         *************************************************************
---------------------------------
CARTESIAN COORDINATES (ANGSTROEM)
---------------------------------
  B   -10.626000    0.735000    0.000000
  B    -8.694000   -0.735000    0.000000
  B    -6.762000    0.735000    0.000000
  B    -4.830000   -0.735000    0.000000
  B    -2.898000    0.735000    0.000000
  B    -0.966000   -0.735000    0.000000
  B     0.966000    0.735000    0.000000
  B     2.898000   -0.735000    0.000000
  B     4.830000    0.735000    0.000000
  B     6.762000   -0.735000    0.000000
  B     8.694000    0.735000    0.000000
  B    10.626000   -0.735000    0.000000

----------------------------
CARTESIAN COORDINATES (A.U.)
----------------------------
  NO LB    ZA    FRAG    MASS        X           Y           Z
   0 B   5.0000    0    10.810  -20.080230    1.388949    0.000000
   1 B   5.0000    0    10.810  -16.429279   -1.388949    0.000000
   2 B   5.0000    0    10.810  -12.778328    1.388949    0.000000
   3 B   5.0000    0    10.810   -9.127377   -1.388949    0.000000
   4 B   5.0000    0    10.810   -5.476426    1.388949    0.000000
   5 B   5.0000    0    10.810   -1.825475   -1.388949    0.000000
   6 B   5.0000    0    10.810    1.825475    1.388949    0.000000
   7 B   5.0000    0    10.810    5.476426   -1.388949    0.000000
   8 B   5.0000    0    10.810    9.127377    1.388949    0.000000
   9 B   5.0000    0    10.810   12.778328   -1.388949    0.000000
  10 B   5.0000    0    10.810   16.429279    1.388949    0.000000
  11 B   5.0000    0    10.810   20.080230   -1.388949    0.000000

      -----------------------------------------------------------      
     |                   =====================                   |     
     |                           x T B                           |     
     |                   =====================                   |     
     |                         S. Grimme                         |     
     |          Mulliken Center for Theoretical Chemistry        |     
     |                    University of Bonn                     |     
      -----------------------------------------------------------      

   * xtb version 6.6.1 (unknown) compiled by 'builduser@buildhost' on 2023-08-07

   xtb is free software: you can redistribute it and/or modify it under
   the terms of the GNU Lesser General Public License as published by
   the Free Software Foundation, either version 3 of the License, or
   (at your option) any later version.
   
   xtb is distributed in the hope that it will be useful,
   but WITHOUT ANY WARRANTY; without even the implied warranty of
   MERCHANTABILITY or FITNESS FOR A PARTICULAR PURPOSE.  See the
   GNU Lesser General Public License for more details.
   
   Cite this work as:
   * C. Bannwarth, E. Caldeweyher, S. Ehlert, A. Hansen, P. Pracht,
     J. Seibert, S. Spicher, S. Grimme, WIREs Comput. Mol. Sci., 2020, 11,
     e01493. DOI: 10.1002/wcms.1493
   
   for GFN2-xTB:
   * C. Bannwarth, S. Ehlert and S. Grimme., J. Chem. Theory Comput., 2019,
     15, 1652-1671. DOI: 10.1021/acs.jctc.8b01176
   for GFN1-xTB:
   * S. Grimme, C. Bannwarth, P. Shushkov, J. Chem. Theory Comput., 2017,
     13, 1989-2009. DOI: 10.1021/acs.jctc.7b00118
   for GFN0-xTB:
   * P. Pracht, E. Caldeweyher, S. Ehlert, S. Grimme, ChemRxiv, 2019, preprint.
     DOI: 10.26434/chemrxiv.8326202.v1
   for GFN-FF:
   * S. Spicher and S. Grimme, Angew. Chem. Int. Ed., 2020, 59, 15665-15673.
     DOI: 10.1002/anie.202004239
   
   for ALPB and GBSA implicit solvation:
   * S. Ehlert, M. Stahn, S. Spicher, S. Grimme, J. Chem. Theory Comput.,
     2021, 17, 4250-4261. DOI: 10.1021/acs.jctc.1c00471
   
   for DFT-D4:
   * E. Caldeweyher, C. Bannwarth and S. Grimme, J. Chem. Phys., 2017,
     147, 034112. DOI: 10.1063/1.4993215
   * E. Caldeweyher, S. Ehlert, A. Hansen, H. Neugebauer, S. Spicher,
     C. Bannwarth and S. Grimme, J. Chem. Phys., 2019, 150, 154122.
     DOI: 10.1063/1.5090222
   * E. Caldeweyher, J.-M. Mewes, S. Ehlert and S. Grimme, Phys. Chem. Chem. Phys.
     2020, 22, 8499-8512. DOI: 10.1039/D0CP00502A
   
   for sTDA-xTB:
   * S. Grimme and C. Bannwarth, J. Chem. Phys., 2016, 145, 054103.
     DOI: 10.1063/1.4959605
   
   in the mass-spec context:
   * V. Asgeirsson, C. Bauer and S. Grimme, Chem. Sci., 2017, 8, 4879.
     DOI: 10.1039/c7sc00601b
   * J. Koopman and S. Grimme, ACS Omega 2019, 4, 12, 15120-15133.
     DOI: 10.1021/acsomega.9b02011
   
   for metadynamics refer to:
   * S. Grimme, J. Chem. Theory Comput., 2019, 155, 2847-2862
     DOI: 10.1021/acs.jctc.9b00143
   
   for SPH calculations refer to:
   * S. Spicher and S. Grimme, J. Chem. Theory Comput., 2021, 17, 1701-1714
     DOI: 10.1021/acs.jctc.0c01306
   
   with help from (in alphabetical order)
   P. Atkinson, C. Bannwarth, F. Bohle, G. Brandenburg, E. Caldeweyher
   M. Checinski, S. Dohm, S. Ehlert, S. Ehrlich, I. Gerasimov, C. Hölzer
   A. Katbashev, J. Koopman, C. Lavigne, S. Lehtola, F. März, M. Müller,
   F. Musil, H. Neugebauer, J. Pisarek, C. Plett, P. Pracht, F. Pultar,
   J. Seibert, P. Shushkov, S. Spicher, M. Stahn, M. Steiner, T. Strunk,
   J. Stückrath, T. Rose, and J. Unsleber
   
 * started run on 2026/04/17 at 12:14:29.213     

           -------------------------------------------------
          |                Calculation Setup                |
           -------------------------------------------------

          program call               : /usr/bin/xtb zigzag_chain12_d2.10_m1_XTB.xyz --grad -c 0 -u 0 -P 1 --namespace zigzag_chain12_d2.10_m1 --input zigzag_chain12_d2.10_m1_XTB.input.tmp --acc 0.200000
          calculation namespace      : zigzag_chain12_d2.10_m1
          coordinate file            : zigzag_chain12_d2.10_m1_XTB.xyz
          omp threads                :                     1

   ID    Z sym.   atoms
    1    5 B      1-12

molecular fragmentation (1/2 indicates fragments):
122222222222
# atoms in fragment 1/2:     1    11
 fragment masses (1/2) :       10.81      118.92
CMA distance (Bohr)    :  21.958
constraining FC (au)   :  0.0500

           -------------------------------------------------
          |                 G F N 2 - x T B                 |
           -------------------------------------------------

        Reference                      10.1021/acs.jctc.8b01176
      * Hamiltonian:
        H0-scaling (s, p, d)           1.850000    2.230000    2.230000
        zeta-weighting                 0.500000
      * Dispersion:
        s8                             2.700000
        a1                             0.520000
        a2                             5.000000
        s9                             5.000000
      * Repulsion:
        kExp                           1.500000    1.000000
        rExp                           1.000000
      * Coulomb:
        alpha                          2.000000
        third order                    shell-resolved
        anisotropic                    true
        a3                             3.000000
        a5                             4.000000
        cn-shift                       1.200000
        cn-exp                         4.000000
        max-rad                        5.000000


          ...................................................
          :                      SETUP                      :
          :.................................................:
          :  # basis functions                  48          :
          :  # atomic orbitals                  48          :
          :  # shells                           24          :
          :  # electrons                        36          :
          :  max. iterations                   250          :
          :  Hamiltonian                  GFN2-xTB          :
          :  restarted?                      false          :
          :  GBSA solvation                  false          :
          :  PC potential                    false          :
          :  electronic temp.          300.0000000     K    :
          :  accuracy                    0.2000000          :
          :  -> integral cutoff          0.3198970E+02      :
          :  -> integral neglect         0.2000000E-08      :
          :  -> SCF convergence          0.2000000E-06 Eh   :
          :  -> wf. convergence          0.2000000E-04 e    :
          :  Broyden damping             0.4000000          :
          ...................................................

 iter      E             dE          RMSdq      gap      omega  full diag
   1    -12.3382183 -0.123382E+02  0.243E+01    0.02       0.0  T
   2      7.2713291  0.196095E+02  0.238E+01    0.00       1.0  T
   3     30.0122114  0.227409E+02  0.319E+01    0.33       1.0  T
   4     23.0014373 -0.701077E+01  0.341E+01    0.87       1.0  T
   5     12.2948197 -0.107066E+02  0.246E+01    0.01       1.0  T
   6     -8.1242941 -0.204191E+02  0.167E+01    0.27       1.0  T
   7     -2.9684425  0.515585E+01  0.198E+01    0.00       1.0  T
   8     -6.5573618 -0.358892E+01  0.163E+01    0.08       1.0  T
   9     -8.6947444 -0.213738E+01  0.126E+01    0.08       1.0  T
  10     -9.3886653 -0.693921E+00  0.107E+01    0.07       1.0  T
  11    -11.2281944 -0.183953E+01  0.976E+00    0.02       1.0  T
  12    -10.0971429  0.113105E+01  0.100E+01    0.12       1.0  T
  13    -10.0031863  0.939566E-01  0.939E+00    0.06       1.0  T
  14    -10.1012202 -0.980340E-01  0.925E+00    0.06       1.0  T
  15    -10.2802393 -0.179019E+00  0.868E+00    0.10       1.0  T
  16    -10.1766242  0.103615E+00  0.858E+00    0.12       1.0  T
  17     -9.8782567  0.298368E+00  0.822E+00    0.11       1.0  T
  18    -11.2926958 -0.141444E+01  0.742E+00    0.06       1.0  T
  19    -11.5755497 -0.282854E+00  0.692E+00    0.03       1.0  T
  20    -11.5508111  0.247386E-01  0.673E+00    0.03       1.0  T
  21    -11.5271277  0.236834E-01  0.674E+00    0.04       1.0  T
  22    -11.5611600 -0.340323E-01  0.669E+00    0.03       1.0  T
  23    -11.4543129  0.106847E+00  0.674E+00    0.05       1.0  T
  24    -11.4568264 -0.251350E-02  0.674E+00    0.05       1.0  T
  25    -11.4973341 -0.405077E-01  0.686E+00    0.04       1.0  T
  26    -11.4980976 -0.763521E-03  0.684E+00    0.04       1.0  T
  27    -11.5591584 -0.610608E-01  0.660E+00    0.04       1.0  T
  28    -11.5534405  0.571789E-02  0.577E+00    0.04       1.0  T
  29    -11.4623199  0.911207E-01  0.561E+00    0.05       1.0  T
  30    -11.4651103 -0.279040E-02  0.550E+00    0.05       1.0  T
  31    -11.6532280 -0.188118E+00  0.548E+00    0.03       1.0  T
  32    -11.7642865 -0.111058E+00  0.539E+00    0.02       1.0  T
  33    -11.8528667 -0.885802E-01  0.536E+00    0.01       1.0  T
  34    -12.1841665 -0.331300E+00  0.486E+00    0.04       1.0  T
  35    -12.0158624  0.168304E+00  0.495E+00    0.01       1.0  T
  36    -12.0074846  0.837779E-02  0.494E+00    0.01       1.0  T
  37    -12.0061335  0.135107E-02  0.497E+00    0.01       1.0  T
  38    -12.1541746 -0.148041E+00  0.505E+00    0.04       1.0  T
  39    -12.1710911 -0.169165E-01  0.496E+00    0.05       1.0  T
  40    -12.2179562 -0.468651E-01  0.466E+00    0.06       1.0  T
  41    -12.2780802 -0.601240E-01  0.436E+00    0.07       1.0  T
  42    -12.2513934  0.266868E-01  0.434E+00    0.07       1.0  T
  43    -12.2740590 -0.226656E-01  0.404E+00    0.08       1.0  T
  44    -12.3733187 -0.992597E-01  0.223E+00    0.11       1.0  T
  45    -12.3847136 -0.113949E-01  0.212E+00    0.11       1.0  T
  46    -12.3846949  0.187316E-04  0.221E+00    0.11       1.0  T
  47    -12.3892096 -0.451474E-02  0.220E+00    0.11       1.0  T
  48    -12.3917293 -0.251972E-02  0.212E+00    0.12       1.0  T
  49    -12.3915320  0.197354E-03  0.190E+00    0.11       1.0  T
  50    -12.3959708 -0.443887E-02  0.164E+00    0.11       1.0  T
  51    -12.4036859 -0.771505E-02  0.150E+00    0.12       1.0  T
  52    -12.4110610 -0.737513E-02  0.129E+00    0.13       1.0  T
  53    -12.4284159 -0.173549E-01  0.127E+00    0.15       1.0  T
  54    -12.4280680  0.347918E-03  0.129E+00    0.16       1.0  T
  55    -12.4283030 -0.234994E-03  0.127E+00    0.16       1.0  T
  56    -12.4280920  0.211001E-03  0.129E+00    0.16       1.0  T
  57    -12.4294959 -0.140392E-02  0.117E+00    0.16       1.0  T
  58    -12.4315155 -0.201962E-02  0.939E-01    0.16       1.0  T
  59    -12.4330630 -0.154744E-02  0.682E-01    0.16       1.0  T
  60    -12.4339662 -0.903264E-03  0.583E-01    0.16       1.0  T
  61    -12.4347969 -0.830669E-03  0.481E-01    0.16       1.0  T
  62    -12.4351897 -0.392812E-03  0.438E-01    0.16       1.0  T
  63    -12.4352061 -0.163743E-04  0.423E-01    0.16       1.0  T
  64    -12.4353627 -0.156623E-03  0.365E-01    0.16       1.0  T
  65    -12.4356201 -0.257427E-03  0.326E-01    0.16       1.0  T
  66    -12.4357035 -0.833851E-04  0.303E-01    0.16       1.0  T
  67    -12.4361083 -0.404739E-03  0.282E-01    0.16       1.0  T
  68    -12.4364334 -0.325182E-03  0.240E-01    0.16       1.0  T
  69    -12.4365505 -0.117010E-03  0.217E-01    0.16       1.0  T
  70    -12.4368864 -0.335988E-03  0.171E-01    0.16       1.0  T
  71    -12.4370267 -0.140259E-03  0.124E-01    0.16       1.0  T
  72    -12.4371016 -0.748954E-04  0.958E-02    0.16       1.0  T
  73    -12.4371722 -0.706065E-04  0.867E-02    0.16       1.0  T
  74    -12.4372021 -0.298879E-04  0.839E-02    0.16       1.0  T
  75    -12.4372183 -0.162428E-04  0.813E-02    0.16       1.0  T
  76    -12.4372394 -0.210980E-04  0.654E-02    0.16       1.0  T
  77    -12.4372502 -0.107907E-04  0.556E-02    0.16       1.0  T
  78    -12.4372606 -0.103447E-04  0.477E-02    0.17       1.0  T
  79    -12.4372677 -0.712920E-05  0.397E-02    0.17       1.0  T
  80    -12.4372711 -0.338218E-05  0.311E-02    0.17       1.0  T
  81    -12.4372729 -0.178777E-05  0.237E-02    0.17       1.2  T
  82    -12.4372740 -0.118032E-05  0.207E-02    0.17       1.4  T
  83    -12.4372753 -0.126531E-05  0.189E-02    0.17       1.5  T
  84    -12.4372762 -0.871023E-06  0.177E-02    0.17       1.6  T
  85    -12.4372776 -0.140582E-05  0.146E-02    0.17       2.0  T
  86    -12.4372785 -0.887538E-06  0.122E-02    0.17       2.4  T
  87    -12.4372792 -0.706970E-06  0.960E-03    0.17       3.0  T
  88    -12.4372795 -0.280130E-06  0.712E-03    0.17       4.1  T
  89    -12.4372797 -0.215493E-06  0.343E-03    0.17       8.4  T
  90    -12.4372797 -0.413949E-07  0.291E-03    0.17       9.9  T
  91    -12.4372797  0.697225E-09  0.250E-03    0.17      11.6  T
  92    -12.4372797 -0.122823E-07  0.201E-03    0.17      14.4  T
  93    -12.4372798 -0.179406E-07  0.656E-04    0.17      44.0  T
  94    -12.4372798  0.363739E-09  0.680E-04    0.17      42.5  T
  95    -12.4372798 -0.112399E-08  0.559E-04    0.17      51.7  T
  96    -12.4372798  0.762199E-10  0.553E-04    0.17      52.2  T
  97    -12.4372798 -0.721409E-09  0.400E-04    0.17      72.2  T
  98    -12.4372798 -0.580435E-09  0.345E-04    0.17      83.8  T
  99    -12.4372798 -0.686846E-09  0.202E-04    0.17     142.6  T
 100    -12.4372798 -0.262924E-09  0.101E-04    0.17     285.0  T
 101    -12.4372798 -0.411937E-10  0.743E-05    0.17     388.6  T

   *** convergence criteria satisfied after 101 iterations ***

         #    Occupation            Energy/Eh            Energy/eV
      -------------------------------------------------------------
         1        2.0000           -0.3573760              -9.7247
       ...           ...                  ...                  ...
        12        2.0000           -0.2791648              -7.5965
        13        2.0000           -0.2743830              -7.4663
        14        2.0000           -0.2728489              -7.4246
        15        2.0000           -0.2720700              -7.4034
        16        2.0000           -0.2681497              -7.2967
        17        1.9997           -0.2630772              -7.1587
        18        1.8951           -0.2575856              -7.0093 (HOMO)
        19        0.0586           -0.2515112              -6.8440 (LUMO)
        20        0.0374           -0.2510747              -6.8321
        21        0.0089           -0.2496927              -6.7945
        22        0.0002           -0.2461062              -6.6969
        23        0.0000           -0.2446799              -6.6581
       ...           ...                  ...                  ...
        48                         -0.1029338              -2.8010
      -------------------------------------------------------------
                  HL-Gap            0.0060744 Eh            0.1653 eV
             Fermi-level           -0.2548359 Eh           -6.9344 eV

 SCC (total)                   0 d,  0 h,  0 min,  0.117 sec
 SCC setup                      ...        0 min,  0.000 sec (  0.103%)
 Dispersion                     ...        0 min,  0.000 sec (  0.069%)
 classical contributions        ...        0 min,  0.000 sec (  0.028%)
 integral evaluation            ...        0 min,  0.002 sec (  1.406%)
 iterations                     ...        0 min,  0.112 sec ( 95.138%)
 molecular gradient             ...        0 min,  0.004 sec (  2.999%)
 printout                       ...        0 min,  0.000 sec (  0.235%)

         :::::::::::::::::::::::::::::::::::::::::::::::::::::
         ::                     SUMMARY                     ::
         :::::::::::::::::::::::::::::::::::::::::::::::::::::
         :: total energy             -12.437388871824 Eh    ::
         :: gradient norm              0.287591363415 Eh/a0 ::
         :: HOMO-LUMO gap              0.165293815325 eV    ::
         ::.................................................::
         :: SCC energy               -12.437279755402 Eh    ::
         :: -> isotropic ES            0.013737142300 Eh    ::
         :: -> anisotropic ES          0.000117994869 Eh    ::
         :: -> anisotropic XC         -0.050345193248 Eh    ::
         :: -> dispersion             -0.016626948332 Eh    ::
         :: repulsion energy           0.000170120820 Eh    ::
         :: add. restraining           0.000000000000 Eh    ::
         :: total charge               0.000000000000 e     ::
         :::::::::::::::::::::::::::::::::::::::::::::::::::::


Property printout bound to 'properties.out'

           -------------------------------------------------
          | TOTAL ENERGY              -12.437388871824 Eh   |
          | GRADIENT NORM               0.287591363415 Eh/α |
          | HOMO-LUMO GAP               0.165293815325 eV   |
           -------------------------------------------------

------------------------------------------------------------------------
 * finished run on 2026/04/17 at 12:14:29.341     
------------------------------------------------------------------------
 total:
 * wall-time:     0 d,  0 h,  0 min,  0.128 sec
 *  cpu-time:     0 d,  0 h,  0 min,  0.128 sec
 * ratio c/w:     0.999 speedup
 SCF:
 * wall-time:     0 d,  0 h,  0 min,  0.118 sec
 *  cpu-time:     0 d,  0 h,  0 min,  0.118 sec
 * ratio c/w:     0.999 speedup


-------------------------   --------------------
FINAL SINGLE POINT ENERGY       -12.437388871820
-------------------------   --------------------


-------------
DIPOLE MOMENT
-------------
                                X             Y             Z
Total Dipole Moment    :     -0.00000       0.00000      -0.00000
                        -----------------------------------------
Magnitude (a.u.)       :      0.00000
Magnitude (Debye)      :      0.00000


------------------
CARTESIAN GRADIENT
------------------

   1   B   :   -0.046877106    0.039186593   -0.000000000
   2   B   :    0.000521749   -0.083253404    0.000000000
   3   B   :    0.004488850    0.087580239    0.000000000
   4   B   :   -0.000611760   -0.087206655   -0.000000000
   5   B   :    0.000586700    0.087514041    0.000000000
   6   B   :   -0.001076103   -0.087942712   -0.000000000
   7   B   :    0.001076102    0.087942708   -0.000000000
   8   B   :   -0.000586706   -0.087514040    0.000000000
   9   B   :    0.000611757    0.087206656    0.000000000
  10   B   :   -0.004488840   -0.087580242   -0.000000000
  11   B   :   -0.000521666    0.083253353    0.000000000
  12   B   :    0.046877022   -0.039186537   -0.000000000

Difference to translation invariance:
           :   -0.0000000000    0.0000000000   -0.0000000000

Difference to rotation invariance:
           :    0.0000000000   -0.0000000000   -0.0090595262

Norm of the Cartesian gradient     ...    0.2875913634
RMS gradient                       ...    0.0479318939
MAX gradient                       ...    0.0879427122
------------------------------------------------------------------------------
                         ORCA GEOMETRY RELAXATION STEP
------------------------------------------------------------------------------

Reading the OPT-File                    .... done
Getting information on internals        .... done
Copying old internal coords+grads       .... done
Making the new internal coordinates     .... (2022 redundants) done
Validating the new internal coordinates .... (2022 redundants) done
Calculating the B-matrix                .... done
Calculating the G,G- and P matrices     .... done
Transforming gradient to internals      .... done
Projecting the internal gradient        .... done
Number of atoms                         ....  12
Number of internal coordinates          ....  31
Current Energy                          ....   -12.437388872 Eh
Current gradient norm                   ....     0.287591363 Eh/bohr
Maximum allowed component of the step   ....  0.300
Current trust radius                    ....  0.300
Evaluating the initial hessian          ....  (Almloef) done
Projecting the Hessian                  .... done
Forming the augmented Hessian           .... done
Diagonalizing the augmented Hessian     .... done
Last element of RFO vector              ....  0.733219490
Lowest eigenvalues of augmented Hessian:
 -0.193347121  0.010000000  0.010000000  0.010000000  0.010000000
Length of the computed step             ....  0.927405849
Warning: the length of the step is outside the trust region - taking restricted step instead
The input lambda is                     ....     0.009000
   iter:   5  x=   -0.025080  g= 2410.306841 f(x)=    35.844665
   iter:  10  x=   -0.323709  g=    5.744998 f(x)=     0.617192
   iter:  15  x=   -0.663376  g=    0.258675 f(x)=     0.000121
The output lambda is                    ....    -0.663376 (18 iterations)
The final length of the internal step   ....  0.300000000
Converting the step to Cartesian space:
 Initial RMS(Int)=    0.0538815906
Transforming coordinates:
 Iter   0:  RMS(Cart)=    0.0997079131 RMS(Int)=    2.5239446594
 Iter   5:  RMS(Cart)=    0.0000000246 RMS(Int)=    0.0000000129
done
Storing new coordinates                 .... done

                                .--------------------.
          ----------------------|Geometry convergence|-------------------------
          Item                value                   Tolerance       Converged
          ---------------------------------------------------------------------
          RMS gradient        0.0376685182            0.0000300000      NO
          MAX gradient        0.0636781517            0.0001000000      NO
          RMS step            0.0538815906            0.0006000000      NO
          MAX step            0.0933826429            0.0010000000      NO
          -------------------------------------------------------------------------
          ........................................................
          Max(Bonds)      0.0494      Max(Angles)    2.81
          Max(Dihed)        0.00      Max(Improp)    0.00
          ---------------------------------------------------------------------

The optimization has not yet converged - more geometry cycles are needed


    ---------------------------------------------------------------------------
                         Redundant Internal Coordinates
                            (Angstroem and degrees)

        Definition                    Value    dE/dq     Step     New-Value
    ----------------------------------------------------------------------------
     1. B(B   1,B   0)                2.4277  0.060983 -0.0473    2.3803   
     2. B(B   2,B   1)                2.4277  0.063678 -0.0494    2.3782   
     3. B(B   3,B   2)                2.4277  0.059532 -0.0462    2.3815   
     4. B(B   4,B   3)                2.4277  0.060429 -0.0469    2.3808   
     5. B(B   5,B   4)                2.4277  0.059696 -0.0463    2.3813   
     6. B(B   6,B   5)                2.4277  0.057197 -0.0432    2.3845   
     7. B(B   7,B   6)                2.4277  0.055795 -0.0421    2.3856   
     8. B(B   8,B   7)                2.4277  0.056527 -0.0427    2.3850   
     9. B(B   9,B   8)                2.4277  0.055630 -0.0420    2.3857   
    10. B(B  10,B   9)                2.4277  0.059777 -0.0452    2.3825   
    11. B(B  11,B   5)               11.5920  0.004903 -0.0054   11.5866   
    12. B(B  11,B  10)                2.4277  0.057081 -0.0431    2.3846   
    13. A(B   0,B   1,B   2)          105.47 -0.012486    0.87    106.33   
    14. A(B   1,B   2,B   3)          105.47 -0.020255    1.41    106.87   
    15. A(B   2,B   3,B   4)          105.47 -0.021446    1.49    106.96   
    16. A(B   3,B   4,B   5)          105.47 -0.021077    1.46    106.93   
    17. A(B   4,B   5,B   6)          105.47 -0.021427    1.49    106.95   
    18. A(B   5,B   6,B   7)          105.47 -0.035046    2.81    108.27   
    19. A(B   6,B   7,B   8)          105.47 -0.021077    1.46    106.93   
    20. A(B   7,B   8,B   9)          105.47 -0.035065    2.81    108.27   
    21. A(B   8,B   9,B  10)          105.47 -0.020255    1.41    106.87   
    22. A(B   9,B  10,B  11)          105.47 -0.026105    2.19    107.65   
    23. D(B   3,B   2,B   1,B   0)    180.00  0.000000    0.00    180.00   
    24. D(B   4,B   3,B   2,B   1)    180.00 -0.000000   -0.00    180.00   
    25. D(B   5,B   4,B   3,B   2)    180.00 -0.000000   -0.00    180.00   
    26. D(B   6,B   5,B   4,B   3)    180.00 -0.000000    0.00    180.00   
    27. D(B   7,B   6,B   5,B   4)    180.00 -0.000000    0.00    180.00   
    28. D(B   8,B   7,B   6,B   5)    180.00 -0.000000   -0.00    180.00   
    29. D(B   9,B   8,B   7,B   6)    180.00 -0.000000   -0.00    180.00   
    30. D(B  10,B   9,B   8,B   7)    180.00 -0.000000    0.00    180.00   
    31. D(B  11,B  10,B   9,B   8)    180.00 -0.000000    0.00    180.00   
    ----------------------------------------------------------------------------

Geometry step timings:
Preparation and reading OPT file:      0.000 s ( 1.940 %)
Internal coordinates            :      0.000 s ( 1.502 %)
B/P matrices and projection     :      0.000 s (22.028 %)
Hessian update/contruction      :      0.000 s (16.834 %)
Making the step                 :      0.000 s (24.406 %)
Converting the step to Cartesian:      0.000 s ( 3.755 %)
Storing new data                :      0.000 s ( 3.129 %)
Checking convergence            :      0.000 s ( 2.753 %)
Final printing                  :      0.000 s (23.655 %)
Total time                      :      0.002 s

Time for energy+gradient        :      0.138 s
Time for complete geometry iter :      0.141 s

         *************************************************************
         *                GEOMETRY OPTIMIZATION CYCLE   2            *
         *************************************************************
---------------------------------
CARTESIAN COORDINATES (ANGSTROEM)
---------------------------------
  B   -10.515575    0.812671   -0.000000
  B    -8.640000   -0.653006    0.000000
  B    -6.707714    0.733465    0.000000
  B    -4.817541   -0.715189   -0.000000
  B    -2.881206    0.669962   -0.000000
  B    -0.991783   -0.779460   -0.000000
  B     0.948363    0.607173    0.000000
  B     2.876626   -0.797786    0.000000
  B     4.781743    0.637458   -0.000000
  B     6.744826   -0.718647    0.000000
  B     8.609805    0.764332    0.000000
  B    10.592458   -0.560972   -0.000000

----------------------------
CARTESIAN COORDINATES (A.U.)
----------------------------
  NO LB    ZA    FRAG    MASS        X           Y           Z
   0 B   5.0000    0    10.810  -19.871557    1.535726   -0.000000
   1 B   5.0000    0    10.810  -16.327235   -1.234003    0.000000
   2 B   5.0000    0    10.810  -12.675742    1.386049    0.000000
   3 B   5.0000    0    10.810   -9.103834   -1.351511   -0.000000
   4 B   5.0000    0    10.810   -5.444690    1.266044   -0.000000
   5 B   5.0000    0    10.810   -1.874198   -1.472966   -0.000000
   6 B   5.0000    0    10.810    1.792146    1.147390    0.000000
   7 B   5.0000    0    10.810    5.436034   -1.507597    0.000000
   8 B   5.0000    0    10.810    9.036184    1.204620   -0.000000
   9 B   5.0000    0    10.810   12.745874   -1.358046    0.000000
  10 B   5.0000    0    10.810   16.270173    1.444378    0.000000
  11 B   5.0000    0    10.810   20.016845   -1.060083   -0.000000

      -----------------------------------------------------------      
     |                   =====================                   |     
     |                           x T B                           |     
     |                   =====================                   |     
     |                         S. Grimme                         |     
     |          Mulliken Center for Theoretical Chemistry        |     
     |                    University of Bonn                     |     
      -----------------------------------------------------------      

   * xtb version 6.6.1 (unknown) compiled by 'builduser@buildhost' on 2023-08-07

   xtb is free software: you can redistribute it and/or modify it under
   the terms of the GNU Lesser General Public License as published by
   the Free Software Foundation, either version 3 of the License, or
   (at your option) any later version.
   
   xtb is distributed in the hope that it will be useful,
   but WITHOUT ANY WARRANTY; without even the implied warranty of
   MERCHANTABILITY or FITNESS FOR A PARTICULAR PURPOSE.  See the
   GNU Lesser General Public License for more details.
   
   Cite this work as:
   * C. Bannwarth, E. Caldeweyher, S. Ehlert, A. Hansen, P. Pracht,
     J. Seibert, S. Spicher, S. Grimme, WIREs Comput. Mol. Sci., 2020, 11,
     e01493. DOI: 10.1002/wcms.1493
   
   for GFN2-xTB:
   * C. Bannwarth, S. Ehlert and S. Grimme., J. Chem. Theory Comput., 2019,
     15, 1652-1671. DOI: 10.1021/acs.jctc.8b01176
   for GFN1-xTB:
   * S. Grimme, C. Bannwarth, P. Shushkov, J. Chem. Theory Comput., 2017,
     13, 1989-2009. DOI: 10.1021/acs.jctc.7b00118
   for GFN0-xTB:
   * P. Pracht, E. Caldeweyher, S. Ehlert, S. Grimme, ChemRxiv, 2019, preprint.
     DOI: 10.26434/chemrxiv.8326202.v1
   for GFN-FF:
   * S. Spicher and S. Grimme, Angew. Chem. Int. Ed., 2020, 59, 15665-15673.
     DOI: 10.1002/anie.202004239
   
   for ALPB and GBSA implicit solvation:
   * S. Ehlert, M. Stahn, S. Spicher, S. Grimme, J. Chem. Theory Comput.,
     2021, 17, 4250-4261. DOI: 10.1021/acs.jctc.1c00471
   
   for DFT-D4:
   * E. Caldeweyher, C. Bannwarth and S. Grimme, J. Chem. Phys., 2017,
     147, 034112. DOI: 10.1063/1.4993215
   * E. Caldeweyher, S. Ehlert, A. Hansen, H. Neugebauer, S. Spicher,
     C. Bannwarth and S. Grimme, J. Chem. Phys., 2019, 150, 154122.
     DOI: 10.1063/1.5090222
   * E. Caldeweyher, J.-M. Mewes, S. Ehlert and S. Grimme, Phys. Chem. Chem. Phys.
     2020, 22, 8499-8512. DOI: 10.1039/D0CP00502A
   
   for sTDA-xTB:
   * S. Grimme and C. Bannwarth, J. Chem. Phys., 2016, 145, 054103.
     DOI: 10.1063/1.4959605
   
   in the mass-spec context:
   * V. Asgeirsson, C. Bauer and S. Grimme, Chem. Sci., 2017, 8, 4879.
     DOI: 10.1039/c7sc00601b
   * J. Koopman and S. Grimme, ACS Omega 2019, 4, 12, 15120-15133.
     DOI: 10.1021/acsomega.9b02011
   
   for metadynamics refer to:
   * S. Grimme, J. Chem. Theory Comput., 2019, 155, 2847-2862
     DOI: 10.1021/acs.jctc.9b00143
   
   for SPH calculations refer to:
   * S. Spicher and S. Grimme, J. Chem. Theory Comput., 2021, 17, 1701-1714
     DOI: 10.1021/acs.jctc.0c01306
   
   with help from (in alphabetical order)
   P. Atkinson, C. Bannwarth, F. Bohle, G. Brandenburg, E. Caldeweyher
   M. Checinski, S. Dohm, S. Ehlert, S. Ehrlich, I. Gerasimov, C. Hölzer
   A. Katbashev, J. Koopman, C. Lavigne, S. Lehtola, F. März, M. Müller,
   F. Musil, H. Neugebauer, J. Pisarek, C. Plett, P. Pracht, F. Pultar,
   J. Seibert, P. Shushkov, S. Spicher, M. Stahn, M. Steiner, T. Strunk,
   J. Stückrath, T. Rose, and J. Unsleber
   
 * started run on 2026/04/17 at 12:14:29.353     

           -------------------------------------------------
          |                Calculation Setup                |
           -------------------------------------------------

          program call               : /usr/bin/xtb zigzag_chain12_d2.10_m1_XTB.xyz --grad -c 0 -u 0 -P 1 --namespace zigzag_chain12_d2.10_m1 --input zigzag_chain12_d2.10_m1_XTB.input.tmp --acc 0.200000
          calculation namespace      : zigzag_chain12_d2.10_m1
          coordinate file            : zigzag_chain12_d2.10_m1_XTB.xyz
          omp threads                :                     1

   ID    Z sym.   atoms
    1    5 B      1-12

molecular fragmentation (1/2 indicates fragments):
122222222222
# atoms in fragment 1/2:     1    11
 fragment masses (1/2) :       10.81      118.92
CMA distance (Bohr)    :  21.743
constraining FC (au)   :  0.0500

           -------------------------------------------------
          |                 G F N 2 - x T B                 |
           -------------------------------------------------

        Reference                      10.1021/acs.jctc.8b01176
      * Hamiltonian:
        H0-scaling (s, p, d)           1.850000    2.230000    2.230000
        zeta-weighting                 0.500000
      * Dispersion:
        s8                             2.700000
        a1                             0.520000
        a2                             5.000000
        s9                             5.000000
      * Repulsion:
        kExp                           1.500000    1.000000
        rExp                           1.000000
      * Coulomb:
        alpha                          2.000000
        third order                    shell-resolved
        anisotropic                    true
        a3                             3.000000
        a5                             4.000000
        cn-shift                       1.200000
        cn-exp                         4.000000
        max-rad                        5.000000

q/qsh data taken from xtbrestart
CAMM data taken from xtbrestart

          ...................................................
          :                      SETUP                      :
          :.................................................:
          :  # basis functions                  48          :
          :  # atomic orbitals                  48          :
          :  # shells                           24          :
          :  # electrons                        36          :
          :  max. iterations                   250          :
          :  Hamiltonian                  GFN2-xTB          :
          :  restarted?                       true          :
          :  GBSA solvation                  false          :
          :  PC potential                    false          :
          :  electronic temp.          300.0000000     K    :
          :  accuracy                    0.2000000          :
          :  -> integral cutoff          0.3198970E+02      :
          :  -> integral neglect         0.2000000E-08      :
          :  -> SCF convergence          0.2000000E-06 Eh   :
          :  -> wf. convergence          0.2000000E-04 e    :
          :  Broyden damping             0.4000000          :
          ...................................................

 iter      E             dE          RMSdq      gap      omega  full diag
   1    -12.5001164 -0.125001E+02  0.114E+00    0.09       0.0  T
   2    -12.3053687  0.194748E+00  0.332E+00    0.06       1.0  T
   3    -12.4158789 -0.110510E+00  0.198E+00    0.06       1.0  T
   4    -11.9909835  0.424895E+00  0.437E+00    0.04       1.0  T
   5    -11.7470776  0.243906E+00  0.523E+00    0.08       1.0  T
   6    -10.5399638  0.120711E+01  0.779E+00    0.13       1.0  T
   7    -11.1374795 -0.597516E+00  0.652E+00    0.13       1.0  T
   8    -11.5975820 -0.460103E+00  0.565E+00    0.09       1.0  T
   9    -12.0618162 -0.464234E+00  0.402E+00    0.03       1.0  T
  10    -12.1547340 -0.929178E-01  0.343E+00    0.01       1.0  T
  11    -12.4741361 -0.319402E+00  0.110E+00    0.07       1.0  T
  12    -12.4454031  0.287331E-01  0.138E+00    0.07       1.0  T
  13    -12.4972623 -0.518592E-01  0.587E-01    0.09       1.0  T
  14    -12.4959464  0.131590E-02  0.703E-01    0.09       1.0  T
  15    -12.4990338 -0.308745E-02  0.551E-01    0.10       1.0  T
  16    -12.4994786 -0.444737E-03  0.507E-01    0.10       1.0  T
  17    -12.4996759 -0.197332E-03  0.468E-01    0.10       1.0  T
  18    -12.4995626  0.113271E-03  0.430E-01    0.10       1.0  T
  19    -12.4997953 -0.232711E-03  0.372E-01    0.10       1.0  T
  20    -12.5002002 -0.404868E-03  0.288E-01    0.10       1.0  T
  21    -12.5009595 -0.759324E-03  0.219E-01    0.10       1.0  T
  22    -12.5009524  0.711189E-05  0.229E-01    0.10       1.0  T
  23    -12.5010963 -0.143907E-03  0.190E-01    0.10       1.0  T
  24    -12.5010114  0.849595E-04  0.182E-01    0.10       1.0  T
  25    -12.5010631 -0.516881E-04  0.167E-01    0.10       1.0  T
  26    -12.5010096  0.534392E-04  0.162E-01    0.10       1.0  T
  27    -12.5010603 -0.507062E-04  0.134E-01    0.10       1.0  T
  28    -12.5010992 -0.388843E-04  0.122E-01    0.10       1.0  T
  29    -12.5010979  0.126823E-05  0.122E-01    0.10       1.0  T
  30    -12.5011216 -0.236178E-04  0.964E-02    0.10       1.0  T
  31    -12.5011259 -0.432126E-05  0.853E-02    0.10       1.0  T
  32    -12.5011312 -0.529976E-05  0.712E-02    0.10       1.0  T
  33    -12.5011384 -0.722728E-05  0.563E-02    0.10       1.0  T
  34    -12.5011412 -0.275739E-05  0.512E-02    0.10       1.0  T
  35    -12.5011488 -0.761032E-05  0.354E-02    0.10       1.0  T
  36    -12.5011528 -0.404589E-05  0.251E-02    0.10       1.2  T
  37    -12.5011556 -0.276404E-05  0.159E-02    0.10       1.8  T
  38    -12.5011562 -0.657523E-06  0.135E-02    0.10       2.1  T
  39    -12.5011568 -0.554573E-06  0.102E-02    0.10       2.8  T
  40    -12.5011572 -0.433811E-06  0.602E-03    0.10       4.8  T
  41    -12.5011575 -0.215594E-06  0.154E-03    0.10      18.7  T
  42    -12.5011575 -0.278137E-08  0.126E-03    0.10      22.9  T
  43    -12.5011575 -0.314226E-08  0.103E-03    0.10      28.0  T
  44    -12.5011575 -0.422904E-08  0.753E-04    0.10      38.3  T
  45    -12.5011575 -0.507308E-09  0.635E-04    0.10      45.4  T
  46    -12.5011575 -0.134484E-08  0.519E-04    0.10      55.7  T
  47    -12.5011575 -0.101017E-08  0.422E-04    0.10      68.3  T
  48    -12.5011575 -0.929711E-09  0.285E-04    0.10     101.3  T
  49    -12.5011575 -0.516037E-09  0.140E-04    0.10     205.5  T
  50    -12.5011575 -0.142096E-09  0.641E-05    0.10     450.5  T

   *** convergence criteria satisfied after 50 iterations ***

         #    Occupation            Energy/Eh            Energy/eV
      -------------------------------------------------------------
         1        2.0000           -0.3593533              -9.7785
       ...           ...                  ...                  ...
        12        2.0000           -0.2780003              -7.5648
        13        2.0000           -0.2738389              -7.4515
        14        2.0000           -0.2734807              -7.4418
        15        2.0000           -0.2709222              -7.3722
        16        2.0000           -0.2666751              -7.2566
        17        1.9993           -0.2614248              -7.1137
        18        1.7195           -0.2555875              -6.9549 (HOMO)
        19        0.2387           -0.2519662              -6.8563 (LUMO)
        20        0.0320           -0.2499526              -6.8016
        21        0.0099           -0.2488310              -6.7710
        22        0.0005           -0.2459622              -6.6930
        23        0.0000           -0.2421271              -6.5886
       ...           ...                  ...                  ...
        48                         -0.0888514              -2.4178
      -------------------------------------------------------------
                  HL-Gap            0.0036213 Eh            0.0985 eV
             Fermi-level           -0.2538649 Eh           -6.9080 eV

 SCC (total)                   0 d,  0 h,  0 min,  0.056 sec
 SCC setup                      ...        0 min,  0.000 sec (  0.251%)
 Dispersion                     ...        0 min,  0.000 sec (  0.171%)
 classical contributions        ...        0 min,  0.000 sec (  0.065%)
 integral evaluation            ...        0 min,  0.002 sec (  2.937%)
 iterations                     ...        0 min,  0.049 sec ( 89.044%)
 molecular gradient             ...        0 min,  0.004 sec (  7.015%)
 printout                       ...        0 min,  0.000 sec (  0.467%)

         :::::::::::::::::::::::::::::::::::::::::::::::::::::
         ::                     SUMMARY                     ::
         :::::::::::::::::::::::::::::::::::::::::::::::::::::
         :: total energy             -12.501200410571 Eh    ::
         :: gradient norm              0.293751943194 Eh/a0 ::
         :: HOMO-LUMO gap              0.098539421636 eV    ::
         ::.................................................::
         :: SCC energy               -12.501157465768 Eh    ::
         :: -> isotropic ES            0.016409508813 Eh    ::
         :: -> anisotropic ES          0.000085740224 Eh    ::
         :: -> anisotropic XC         -0.051005476237 Eh    ::
         :: -> dispersion             -0.016785195902 Eh    ::
         :: repulsion energy           0.000251476550 Eh    ::
         :: add. restraining           0.000000000000 Eh    ::
         :: total charge              -0.000000001443 e     ::
         :::::::::::::::::::::::::::::::::::::::::::::::::::::


Property printout bound to 'properties.out'

           -------------------------------------------------
          | TOTAL ENERGY              -12.501200410571 Eh   |
          | GRADIENT NORM               0.293751943194 Eh/α |
          | HOMO-LUMO GAP               0.098539421636 eV   |
           -------------------------------------------------

------------------------------------------------------------------------
 * finished run on 2026/04/17 at 12:14:29.419     
------------------------------------------------------------------------
 total:
 * wall-time:     0 d,  0 h,  0 min,  0.066 sec
 *  cpu-time:     0 d,  0 h,  0 min,  0.066 sec
 * ratio c/w:     0.993 speedup
 SCF:
 * wall-time:     0 d,  0 h,  0 min,  0.056 sec
 *  cpu-time:     0 d,  0 h,  0 min,  0.055 sec
 * ratio c/w:     0.997 speedup


-------------------------   --------------------
FINAL SINGLE POINT ENERGY       -12.501200410570
-------------------------   --------------------


-------------
DIPOLE MOMENT
-------------
                                X             Y             Z
Total Dipole Moment    :     -0.02200      -0.01100      -0.00000
                        -----------------------------------------
Magnitude (a.u.)       :      0.02460
Magnitude (Debye)      :      0.06252


------------------
CARTESIAN GRADIENT
------------------

   1   B   :   -0.047534136    0.040964227    0.000000000
   2   B   :   -0.001837455   -0.085731628   -0.000000000
   3   B   :    0.006147271    0.089785652    0.000000000
   4   B   :   -0.002210963   -0.089488741   -0.000000000
   5   B   :    0.002043035    0.089914424   -0.000000000
   6   B   :   -0.002830293   -0.090036160   -0.000000000
   7   B   :    0.001473245    0.088736392    0.000000000
   8   B   :    0.000022038   -0.089491227    0.000000000
   9   B   :   -0.001030107    0.087947885   -0.000000000
  10   B   :   -0.001551660   -0.089637997    0.000000000
  11   B   :   -0.003068403    0.084230465   -0.000000000
  12   B   :    0.050377429   -0.037193292    0.000000000

Difference to translation invariance:
           :   -0.0000000000    0.0000000000   -0.0000000000

Difference to rotation invariance:
           :   -0.0000000000    0.0000000000    0.0000000444

Norm of the Cartesian gradient     ...    0.2937519432
RMS gradient                       ...    0.0489586572
MAX gradient                       ...    0.0900361600
------------------------------------------------------------------------------
                         ORCA GEOMETRY RELAXATION STEP
------------------------------------------------------------------------------

Reading the OPT-File                    .... done
Getting information on internals        .... done
Copying old internal coords+grads       .... done
Making the new internal coordinates     .... (2022 redundants) done
Validating the new internal coordinates .... (2022 redundants) done
Calculating the B-matrix                .... done
Calculating the G,G- and P matrices     .... done
Transforming gradient to internals      .... done
Projecting the internal gradient        .... done
Number of atoms                         ....  12
Number of internal coordinates          ....  31
Current Energy                          ....   -12.501200411 Eh
Current gradient norm                   ....     0.293751943 Eh/bohr
Maximum allowed component of the step   ....  0.300
Current trust radius                    ....  0.300
Updating the Hessian (BFGS)             .... done
Forming the augmented Hessian           .... done
Diagonalizing the augmented Hessian     .... done
Last element of RFO vector              ....  0.732404896
Lowest eigenvalues of augmented Hessian:
 -0.199845567  0.010000000  0.010000000  0.010000000  0.010000000
Length of the computed step             ....  0.929635168
Warning: the length of the step is outside the trust region - taking restricted step instead
The input lambda is                     ....     0.009000
   iter:   5  x=   -0.024905  g= 2612.257420 f(x)=    38.619649
   iter:  10  x=   -0.323453  g=    6.181833 f(x)=     0.667785
   iter:  15  x=   -0.685076  g=    0.251161 f(x)=     0.000184
The output lambda is                    ....    -0.685077 (18 iterations)
The final length of the internal step   ....  0.300000000
Converting the step to Cartesian space:
 Initial RMS(Int)=    0.0538815906
Transforming coordinates:
 Iter   0:  RMS(Cart)=    0.1072434823 RMS(Int)=    0.0528807348
 Iter   5:  RMS(Cart)=    0.0000000299 RMS(Int)=    0.0000000163
done
Storing new coordinates                 .... done
The predicted energy change is          ....    -0.063229741
Previously predicted energy change      ....    -0.061281312
Actually observed energy change         ....    -0.063811539
Ratio of predicted to observed change   ....     1.041288711
New trust radius                        ....     0.450000000

                                .--------------------.
          ----------------------|Geometry convergence|-------------------------
          Item                value                   Tolerance       Converged
          ---------------------------------------------------------------------
          Energy change      -0.0638115388            0.0000010000      NO
          RMS gradient        0.0388397696            0.0000300000      NO
          MAX gradient        0.0662122663            0.0001000000      NO
          RMS step            0.0538815906            0.0006000000      NO
          MAX step            0.0941042065            0.0010000000      NO
          -------------------------------------------------------------------------
          ........................................................
          Max(Bonds)      0.0498      Max(Angles)    2.77
          Max(Dihed)        0.00      Max(Improp)    0.00
          ---------------------------------------------------------------------

The optimization has not yet converged - more geometry cycles are needed


    ---------------------------------------------------------------------------
                         Redundant Internal Coordinates
                            (Angstroem and degrees)

        Definition                    Value    dE/dq     Step     New-Value
    ----------------------------------------------------------------------------
     1. B(B   1,B   0)                2.3803  0.062678 -0.0471    2.3332   
     2. B(B   2,B   1)                2.3782  0.066212 -0.0498    2.3284   
     3. B(B   3,B   2)                2.3815  0.061692 -0.0464    2.3351   
     4. B(B   4,B   3)                2.3808  0.062827 -0.0473    2.3335   
     5. B(B   5,B   4)                2.3813  0.062089 -0.0467    2.3346   
     6. B(B   6,B   5)                2.3847  0.058029 -0.0430    2.3417   
     7. B(B   7,B   6)                2.3858  0.056841 -0.0421    2.3437   
     8. B(B   8,B   7)                2.3852  0.057602 -0.0427    2.3426   
     9. B(B   9,B   8)                2.3859  0.056439 -0.0418    2.3441   
    10. B(B  10,B   9)                2.3827  0.061000 -0.0452    2.3375   
    11. B(B  11,B   5)               11.5863  0.006678 -0.0059   11.5804   
    12. B(B  11,B  10)                2.3848  0.057070 -0.0423    2.3425   
    13. A(B   0,B   1,B   2)          106.33 -0.013534    0.91    107.25   
    14. A(B   1,B   2,B   3)          106.87 -0.020578    1.39    108.26   
    15. A(B   2,B   3,B   4)          106.96 -0.021894    1.48    108.44   
    16. A(B   3,B   4,B   5)          106.93 -0.021901    1.48    108.41   
    17. A(B   4,B   5,B   6)          106.95 -0.021505    1.45    108.41   
    18. A(B   5,B   6,B   7)          108.37 -0.037900    2.77    111.13   
    19. A(B   6,B   7,B   8)          106.93 -0.022333    1.51    108.44   
    20. A(B   7,B   8,B   9)          108.37 -0.037268    2.72    111.09   
    21. A(B   8,B   9,B  10)          106.87 -0.021084    1.43    108.30   
    22. A(B   9,B  10,B  11)          107.75 -0.030376    2.26    110.01   
    23. D(B   3,B   2,B   1,B   0)   -180.00 -0.000000    0.00   -180.00   
    24. D(B   4,B   3,B   2,B   1)    180.00  0.000000   -0.00    180.00   
    25. D(B   5,B   4,B   3,B   2)    180.00 -0.000000   -0.00    180.00   
    26. D(B   6,B   5,B   4,B   3)   -180.00  0.000000    0.00   -180.00   
    27. D(B   7,B   6,B   5,B   4)   -180.00 -0.000000    0.00   -180.00   
    28. D(B   8,B   7,B   6,B   5)    180.00  0.000000   -0.00    180.00   
    29. D(B   9,B   8,B   7,B   6)    180.00 -0.000000   -0.00    180.00   
    30. D(B  10,B   9,B   8,B   7)   -180.00 -0.000000    0.00   -180.00   
    31. D(B  11,B  10,B   9,B   8)   -180.00 -0.000000    0.00   -180.00   
    ----------------------------------------------------------------------------

Geometry step timings:
Preparation and reading OPT file:      0.000 s ( 2.151 %)
Internal coordinates            :      0.000 s ( 1.585 %)
B/P matrices and projection     :      0.000 s (24.109 %)
Hessian update/contruction      :      0.000 s (23.316 %)
Making the step                 :      0.000 s (24.222 %)
Converting the step to Cartesian:      0.000 s ( 2.264 %)
Storing new data                :      0.000 s ( 2.264 %)
Checking convergence            :      0.000 s ( 2.547 %)
Final printing                  :      0.000 s (17.431 %)
Total time                      :      0.002 s

Time for energy+gradient        :      0.076 s
Time for complete geometry iter :      0.079 s

         *************************************************************
         *                GEOMETRY OPTIMIZATION CYCLE   3            *
         *************************************************************
---------------------------------
CARTESIAN COORDINATES (ANGSTROEM)
---------------------------------
  B   -10.397620    0.896884   -0.000000
  B    -8.579542   -0.565439    0.000000
  B    -6.647838    0.734627    0.000000
  B    -4.802661   -0.696400    0.000000
  B    -2.862859    0.600691   -0.000000
  B    -1.018649   -0.830885    0.000000
  B     0.928677    0.471358    0.000000
  B     2.854105   -0.866471    0.000000
  B     4.731856    0.535612   -0.000000
  B     6.723429   -0.702448   -0.000000
  B     8.519530    0.794867    0.000000
  B    10.551572   -0.372395   -0.000000

----------------------------
CARTESIAN COORDINATES (A.U.)
----------------------------
  NO LB    ZA    FRAG    MASS        X           Y           Z
   0 B   5.0000    0    10.810  -19.648654    1.694865   -0.000000
   1 B   5.0000    0    10.810  -16.212985   -1.068525    0.000000
   2 B   5.0000    0    10.810  -12.562592    1.388243    0.000000
   3 B   5.0000    0    10.810   -9.075715   -1.316005    0.000000
   4 B   5.0000    0    10.810   -5.410020    1.135142   -0.000000
   5 B   5.0000    0    10.810   -1.924968   -1.570145    0.000000
   6 B   5.0000    0    10.810    1.754945    0.890738    0.000000
   7 B   5.0000    0    10.810    5.393477   -1.637394    0.000000
   8 B   5.0000    0    10.810    8.941911    1.012159   -0.000000
   9 B   5.0000    0    10.810   12.705439   -1.327434   -0.000000
  10 B   5.0000    0    10.810   16.099579    1.502081    0.000000
  11 B   5.0000    0    10.810   19.939582   -0.703725   -0.000000

      -----------------------------------------------------------      
     |                   =====================                   |     
     |                           x T B                           |     
     |                   =====================                   |     
     |                         S. Grimme                         |     
     |          Mulliken Center for Theoretical Chemistry        |     
     |                    University of Bonn                     |     
      -----------------------------------------------------------      

   * xtb version 6.6.1 (unknown) compiled by 'builduser@buildhost' on 2023-08-07

   xtb is free software: you can redistribute it and/or modify it under
   the terms of the GNU Lesser General Public License as published by
   the Free Software Foundation, either version 3 of the License, or
   (at your option) any later version.
   
   xtb is distributed in the hope that it will be useful,
   but WITHOUT ANY WARRANTY; without even the implied warranty of
   MERCHANTABILITY or FITNESS FOR A PARTICULAR PURPOSE.  See the
   GNU Lesser General Public License for more details.
   
   Cite this work as:
   * C. Bannwarth, E. Caldeweyher, S. Ehlert, A. Hansen, P. Pracht,
     J. Seibert, S. Spicher, S. Grimme, WIREs Comput. Mol. Sci., 2020, 11,
     e01493. DOI: 10.1002/wcms.1493
   
   for GFN2-xTB:
   * C. Bannwarth, S. Ehlert and S. Grimme., J. Chem. Theory Comput., 2019,
     15, 1652-1671. DOI: 10.1021/acs.jctc.8b01176
   for GFN1-xTB:
   * S. Grimme, C. Bannwarth, P. Shushkov, J. Chem. Theory Comput., 2017,
     13, 1989-2009. DOI: 10.1021/acs.jctc.7b00118
   for GFN0-xTB:
   * P. Pracht, E. Caldeweyher, S. Ehlert, S. Grimme, ChemRxiv, 2019, preprint.
     DOI: 10.26434/chemrxiv.8326202.v1
   for GFN-FF:
   * S. Spicher and S. Grimme, Angew. Chem. Int. Ed., 2020, 59, 15665-15673.
     DOI: 10.1002/anie.202004239
   
   for ALPB and GBSA implicit solvation:
   * S. Ehlert, M. Stahn, S. Spicher, S. Grimme, J. Chem. Theory Comput.,
     2021, 17, 4250-4261. DOI: 10.1021/acs.jctc.1c00471
   
   for DFT-D4:
   * E. Caldeweyher, C. Bannwarth and S. Grimme, J. Chem. Phys., 2017,
     147, 034112. DOI: 10.1063/1.4993215
   * E. Caldeweyher, S. Ehlert, A. Hansen, H. Neugebauer, S. Spicher,
     C. Bannwarth and S. Grimme, J. Chem. Phys., 2019, 150, 154122.
     DOI: 10.1063/1.5090222
   * E. Caldeweyher, J.-M. Mewes, S. Ehlert and S. Grimme, Phys. Chem. Chem. Phys.
     2020, 22, 8499-8512. DOI: 10.1039/D0CP00502A
   
   for sTDA-xTB:
   * S. Grimme and C. Bannwarth, J. Chem. Phys., 2016, 145, 054103.
     DOI: 10.1063/1.4959605
   
   in the mass-spec context:
   * V. Asgeirsson, C. Bauer and S. Grimme, Chem. Sci., 2017, 8, 4879.
     DOI: 10.1039/c7sc00601b
   * J. Koopman and S. Grimme, ACS Omega 2019, 4, 12, 15120-15133.
     DOI: 10.1021/acsomega.9b02011
   
   for metadynamics refer to:
   * S. Grimme, J. Chem. Theory Comput., 2019, 155, 2847-2862
     DOI: 10.1021/acs.jctc.9b00143
   
   for SPH calculations refer to:
   * S. Spicher and S. Grimme, J. Chem. Theory Comput., 2021, 17, 1701-1714
     DOI: 10.1021/acs.jctc.0c01306
   
   with help from (in alphabetical order)
   P. Atkinson, C. Bannwarth, F. Bohle, G. Brandenburg, E. Caldeweyher
   M. Checinski, S. Dohm, S. Ehlert, S. Ehrlich, I. Gerasimov, C. Hölzer
   A. Katbashev, J. Koopman, C. Lavigne, S. Lehtola, F. März, M. Müller,
   F. Musil, H. Neugebauer, J. Pisarek, C. Plett, P. Pracht, F. Pultar,
   J. Seibert, P. Shushkov, S. Spicher, M. Stahn, M. Steiner, T. Strunk,
   J. Stückrath, T. Rose, and J. Unsleber
   
 * started run on 2026/04/17 at 12:14:29.432     

           -------------------------------------------------
          |                Calculation Setup                |
           -------------------------------------------------

          program call               : /usr/bin/xtb zigzag_chain12_d2.10_m1_XTB.xyz --grad -c 0 -u 0 -P 1 --namespace zigzag_chain12_d2.10_m1 --input zigzag_chain12_d2.10_m1_XTB.input.tmp --acc 0.200000
          calculation namespace      : zigzag_chain12_d2.10_m1
          coordinate file            : zigzag_chain12_d2.10_m1_XTB.xyz
          omp threads                :                     1

   ID    Z sym.   atoms
    1    5 B      1-12

molecular fragmentation (1/2 indicates fragments):
122222222222
# atoms in fragment 1/2:     1    11
 fragment masses (1/2) :       10.81      118.92
CMA distance (Bohr)    :  21.514
constraining FC (au)   :  0.0500

           -------------------------------------------------
          |                 G F N 2 - x T B                 |
           -------------------------------------------------

        Reference                      10.1021/acs.jctc.8b01176
      * Hamiltonian:
        H0-scaling (s, p, d)           1.850000    2.230000    2.230000
        zeta-weighting                 0.500000
      * Dispersion:
        s8                             2.700000
        a1                             0.520000
        a2                             5.000000
        s9                             5.000000
      * Repulsion:
        kExp                           1.500000    1.000000
        rExp                           1.000000
      * Coulomb:
        alpha                          2.000000
        third order                    shell-resolved
        anisotropic                    true
        a3                             3.000000
        a5                             4.000000
        cn-shift                       1.200000
        cn-exp                         4.000000
        max-rad                        5.000000

q/qsh data taken from xtbrestart
CAMM data taken from xtbrestart

          ...................................................
          :                      SETUP                      :
          :.................................................:
          :  # basis functions                  48          :
          :  # atomic orbitals                  48          :
          :  # shells                           24          :
          :  # electrons                        36          :
          :  max. iterations                   250          :
          :  Hamiltonian                  GFN2-xTB          :
          :  restarted?                       true          :
          :  GBSA solvation                  false          :
          :  PC potential                    false          :
          :  electronic temp.          300.0000000     K    :
          :  accuracy                    0.2000000          :
          :  -> integral cutoff          0.3198970E+02      :
          :  -> integral neglect         0.2000000E-08      :
          :  -> SCF convergence          0.2000000E-06 Eh   :
          :  -> wf. convergence          0.2000000E-04 e    :
          :  Broyden damping             0.4000000          :
          ...................................................

 iter      E             dE          RMSdq      gap      omega  full diag
   1    -12.5648285 -0.125648E+02  0.164E+00    0.02       0.0  T
   2    -11.7454947  0.819334E+00  0.552E+00    0.05       1.0  T
   3    -12.4102950 -0.664800E+00  0.246E+00    0.00       1.0  T
   4    -10.8492043  0.156109E+01  0.695E+00    0.13       1.0  T
   5    -10.4841687  0.365036E+00  0.749E+00    0.11       1.0  T
   6    -10.2553778  0.228791E+00  0.779E+00    0.09       1.0  T
   7    -10.0535035  0.201874E+00  0.801E+00    0.06       1.0  T
[...]
        anisotropic                    true
        a3                             3.000000
        a5                             4.000000
        cn-shift                       1.200000
        cn-exp                         4.000000
        max-rad                        5.000000

q/qsh data taken from xtbrestart
CAMM data taken from xtbrestart

          ...................................................
          :                      SETUP                      :
          :.................................................:
          :  # basis functions                  48          :
          :  # atomic orbitals                  48          :
          :  # shells                           24          :
          :  # electrons                        36          :
          :  max. iterations                   250          :
          :  Hamiltonian                  GFN2-xTB          :
          :  restarted?                       true          :
          :  GBSA solvation                  false          :
          :  PC potential                    false          :
          :  electronic temp.          300.0000000     K    :
          :  accuracy                    0.2000000          :
          :  -> integral cutoff          0.3198970E+02      :
          :  -> integral neglect         0.2000000E-08      :
          :  -> SCF convergence          0.2000000E-06 Eh   :
          :  -> wf. convergence          0.2000000E-04 e    :
          :  Broyden damping             0.4000000          :
          ...................................................

 iter      E             dE          RMSdq      gap      omega  full diag
   1    -14.3528915 -0.143529E+02  0.244E-01    0.00       0.0  T
   2    -14.3528842  0.723512E-05  0.150E-01    0.00       1.0  T
   3    -14.3496760  0.320820E-02  0.285E-01    0.00       1.0  T
   4    -14.3526290 -0.295298E-02  0.817E-02    0.00       1.0  T
   5    -14.3528878 -0.258769E-03  0.120E-02    0.00       2.4  T
   6    -14.3528893 -0.149855E-05  0.104E-02    0.00       2.8  T
   7    -14.3528865  0.274633E-05  0.129E-02    0.00       2.2  T
   8    -14.3528907 -0.413959E-05  0.664E-03    0.00       4.3  T
   9    -14.3528916 -0.894379E-06  0.364E-03    0.00       7.9  T
  10    -14.3528917 -0.177083E-06  0.263E-03    0.00      11.0  T
  11    -14.3528919 -0.160958E-06  0.176E-03    0.00      16.4  T
  12    -14.3528920 -0.133420E-06  0.264E-04    0.00     109.3  T
  13    -14.3528920 -0.261183E-09  0.208E-04    0.00     139.0  T
  14    -14.3528920 -0.823759E-09  0.111E-04    0.00     259.7  T
  15    -14.3528920 -0.399888E-09  0.308E-05    0.00     937.7  T

   *** convergence criteria satisfied after 15 iterations ***

         #    Occupation            Energy/Eh            Energy/eV
      -------------------------------------------------------------
         1        2.0000           -0.3917211             -10.6593
       ...           ...                  ...                  ...
        12        2.0000           -0.2769488              -7.5362
        13        2.0000           -0.2769481              -7.5361
        14        2.0000           -0.2745030              -7.4696
        15        2.0000           -0.2745024              -7.4696
        16        2.0000           -0.2622343              -7.1358
        17        2.0000           -0.2622340              -7.1357
        18        1.0002           -0.2467786              -6.7152 (HOMO)
        19        0.9998           -0.2467779              -6.7152 (LUMO)
        20                         -0.2306879              -6.2773
        21                         -0.2306371              -6.2760
        22                         -0.2231354              -6.0718
        23                         -0.2231318              -6.0717
       ...                                ...                  ...
        48                          1.4427693              39.2597
      -------------------------------------------------------------
                  HL-Gap            0.0000008 Eh            0.0000 eV
             Fermi-level           -0.2467783 Eh           -6.7152 eV

 SCC (total)                   0 d,  0 h,  0 min,  0.023 sec
 SCC setup                      ...        0 min,  0.000 sec (  0.581%)
 Dispersion                     ...        0 min,  0.000 sec (  0.428%)
 classical contributions        ...        0 min,  0.000 sec (  0.148%)
 integral evaluation            ...        0 min,  0.002 sec ( 10.849%)
 iterations                     ...        0 min,  0.016 sec ( 68.318%)
 molecular gradient             ...        0 min,  0.004 sec ( 17.846%)
 printout                       ...        0 min,  0.000 sec (  1.718%)

         :::::::::::::::::::::::::::::::::::::::::::::::::::::
         ::                     SUMMARY                     ::
         :::::::::::::::::::::::::::::::::::::::::::::::::::::
         :: total energy             -14.061967227512 Eh    ::
         :: gradient norm              0.000773852956 Eh/a0 ::
         :: HOMO-LUMO gap              0.000021248003 eV    ::
         ::.................................................::
         :: SCC energy               -14.352892044525 Eh    ::
         :: -> isotropic ES            0.112114111321 Eh    ::
         :: -> anisotropic ES          0.000566292411 Eh    ::
         :: -> anisotropic XC         -0.049620605748 Eh    ::
         :: -> dispersion             -0.009484324197 Eh    ::
         :: repulsion energy           0.291140394957 Eh    ::
         :: add. restraining           0.000000000000 Eh    ::
         :: total charge               0.000000000000 e     ::
         :::::::::::::::::::::::::::::::::::::::::::::::::::::


Property printout bound to 'properties.out'

           -------------------------------------------------
          | TOTAL ENERGY              -14.061967227512 Eh   |
          | GRADIENT NORM               0.000773852956 Eh/α |
          | HOMO-LUMO GAP               0.000021248003 eV   |
           -------------------------------------------------

------------------------------------------------------------------------
 * finished run on 2026/04/17 at 12:14:32.699     
------------------------------------------------------------------------
 total:
 * wall-time:     0 d,  0 h,  0 min,  0.035 sec
 *  cpu-time:     0 d,  0 h,  0 min,  0.035 sec
 * ratio c/w:     0.999 speedup
 SCF:
 * wall-time:     0 d,  0 h,  0 min,  0.023 sec
 *  cpu-time:     0 d,  0 h,  0 min,  0.023 sec
 * ratio c/w:     1.000 speedup


-------------------------   --------------------
FINAL SINGLE POINT ENERGY       -14.061967227510
-------------------------   --------------------


-------------
DIPOLE MOMENT
-------------
                                X             Y             Z
Total Dipole Moment    :     -0.00100      -0.04800      -0.00300
                        -----------------------------------------
Magnitude (a.u.)       :      0.04810
Magnitude (Debye)      :      0.12227


------------------
CARTESIAN GRADIENT
------------------

   1   B   :    0.000206238   -0.000020800    0.000097220
   2   B   :   -0.000160694    0.000027384   -0.000183194
   3   B   :   -0.000007269   -0.000026826    0.000063718
   4   B   :   -0.000034320    0.000043318    0.000017577
   5   B   :   -0.000212246   -0.000051617    0.000001135
   6   B   :   -0.000023555    0.000029727    0.000021494
   7   B   :    0.000222880    0.000052857   -0.000029342
   8   B   :    0.000033493   -0.000170837    0.000023281
   9   B   :    0.000008237    0.000242646   -0.000006541
  10   B   :   -0.000010111   -0.000323431   -0.000012562
  11   B   :    0.000032088    0.000378665    0.000014123
  12   B   :   -0.000054742   -0.000181085   -0.000006907

Difference to translation invariance:
           :   -0.0000000000    0.0000000000   -0.0000000000

Difference to rotation invariance:
           :   -0.0000000001   -0.0000000026    0.0000000031

Norm of the Cartesian gradient     ...    0.0007738530
RMS gradient                       ...    0.0001289755
MAX gradient                       ...    0.0003786646
------------------------------------------------------------------------------
                         ORCA GEOMETRY RELAXATION STEP
------------------------------------------------------------------------------

Reading the OPT-File                    .... done
Getting information on internals        .... done
Copying old internal coords+grads       .... done
Making the new internal coordinates     .... (2022 redundants) done
Validating the new internal coordinates .... (2022 redundants) done
Calculating the B-matrix                .... done
Calculating the G,G- and P matrices     .... done
Transforming gradient to internals      .... done
Projecting the internal gradient        .... done
Number of atoms                         ....  12
Number of internal coordinates          ....  31
Current Energy                          ....   -14.061967228 Eh
Current gradient norm                   ....     0.000773853 Eh/bohr
Maximum allowed component of the step   ....  0.300
Current trust radius                    ....  0.100
Updating the Hessian (BFGS)             .... done
Forming the augmented Hessian           .... done
Diagonalizing the augmented Hessian     .... done
Last element of RFO vector              ....  0.999976000
Lowest eigenvalues of augmented Hessian:
 -0.000001159  0.007635015  0.013529775  0.020661644  0.041593559
Length of the computed step             ....  0.006928373
The final length of the internal step   ....  0.006928373
Converting the step to Cartesian space:
 Initial RMS(Int)=    0.0012443726
Transforming coordinates:
 Iter   0:  RMS(Cart)=    0.0033072504 RMS(Int)=    0.0004435624
 Iter   5:  RMS(Cart)=    0.0003798825 RMS(Int)=    0.0000493588
 Iter  10:  RMS(Cart)=    0.0000438016 RMS(Int)=    0.0000056063
 Iter  15:  RMS(Cart)=    0.0000050662 RMS(Int)=    0.0000006460
 Iter  20:  RMS(Cart)=    0.0000005875 RMS(Int)=    0.0000000752
 Iter  25:  RMS(Cart)=    0.0000000683 RMS(Int)=    0.0000000088
done
Storing new coordinates                 .... done
The predicted energy change is          ....    -0.000000579
Previously predicted energy change      ....    -0.000001793
Actually observed energy change         ....    -0.000006571
Ratio of predicted to observed change   ....     3.664467814
New trust radius                        ....     0.100000000

                                .--------------------.
          ----------------------|Geometry convergence|-------------------------
          Item                value                   Tolerance       Converged
          ---------------------------------------------------------------------
          Energy change      -0.0000065711            0.0000010000      NO
          RMS gradient        0.0000825218            0.0000300000      NO
          MAX gradient        0.0002318517            0.0001000000      NO
          RMS step            0.0012443726            0.0006000000      NO
          MAX step            0.0036046505            0.0010000000      NO
          -------------------------------------------------------------------------
          ........................................................
          Max(Bonds)      0.0000      Max(Angles)    0.21
          Max(Dihed)        0.00      Max(Improp)    0.00
          ---------------------------------------------------------------------

The optimization has not yet converged - more geometry cycles are needed


    ---------------------------------------------------------------------------
                         Redundant Internal Coordinates
                            (Angstroem and degrees)

        Definition                    Value    dE/dq     Step     New-Value
    ----------------------------------------------------------------------------
     1. B(B   1,B   0)                1.4302 -0.000206  0.0000    1.4302   
     2. B(B   2,B   1)                1.5086 -0.000045 -0.0000    1.5086   
     3. B(B   3,B   2)                1.5280 -0.000038 -0.0000    1.5280   
     4. B(B   4,B   3)                1.5143 -0.000004 -0.0000    1.5142   
     5. B(B   5,B   4)                1.5169  0.000208  0.0000    1.5170   
     6. B(B   6,B   5)                1.5230  0.000232  0.0000    1.5230   
     7. B(B   7,B   6)                1.5166  0.000010 -0.0000    1.5166   
     8. B(B   8,B   7)                1.5143 -0.000027 -0.0000    1.5142   
     9. B(B   9,B   8)                1.5280 -0.000029 -0.0000    1.5280   
    10. B(B  10,B   9)                1.5086 -0.000029 -0.0000    1.5086   
    11. B(B  11,B  10)                1.4304 -0.000045 -0.0000    1.4304   
    12. L(B   0,B   1,B   2, 2)       180.13  0.000021   -0.02    180.11   
    13. L(B   0,B   1,B   2, 1)       180.70  0.000098   -0.12    180.57   
    14. L(B   1,B   2,B   3, 1)       180.00  0.000011   -0.04    179.96   
    15. L(B   1,B   2,B   3, 2)       180.09  0.000014   -0.01    180.09   
    16. L(B   2,B   3,B   4, 2)       180.19  0.000035   -0.06    180.12   
    17. L(B   2,B   3,B   4, 1)       179.89 -0.000012   -0.01    179.88   
    18. L(B   3,B   4,B   5, 1)       179.84 -0.000017    0.10    179.93   
    19. L(B   3,B   4,B   5, 2)       180.12  0.000013    0.07    180.19   
    20. L(B   4,B   5,B   6, 2)       179.83 -0.000021    0.11    179.94   
    21. L(B   4,B   5,B   6, 1)       180.29  0.000045    0.03    180.33   
    22. L(B   5,B   6,B   7, 2)       179.93 -0.000004    0.16    180.09   
    23. L(B   5,B   6,B   7, 1)       180.27  0.000048    0.10    180.37   
    24. L(B   6,B   7,B   8, 2)       180.09 -0.000005   -0.01    180.08   
    25. L(B   6,B   7,B   8, 1)       179.89 -0.000016    0.07    179.95   
    26. L(B   7,B   8,B   9, 1)       180.52  0.000112   -0.16    180.36   
    27. L(B   7,B   8,B   9, 2)       179.96 -0.000004   -0.01    179.94   
    28. L(B   8,B   9,B  10, 2)       180.00  0.000000   -0.00    180.00   
    29. L(B   8,B   9,B  10, 1)       179.95 -0.000014   -0.01    179.94   
    30. L(B   9,B  10,B  11, 2)       179.95 -0.000007    0.01    179.96   
    31. L(B   9,B  10,B  11, 1)       181.29  0.000183   -0.21    181.09   
    ----------------------------------------------------------------------------

Geometry step timings:
Preparation and reading OPT file:      0.000 s ( 5.019 %)
Internal coordinates            :      0.000 s ( 1.765 %)
B/P matrices and projection     :      0.000 s (23.276 %)
Hessian update/contruction      :      0.000 s (19.967 %)
Making the step                 :      0.000 s (14.010 %)
Converting the step to Cartesian:      0.000 s (12.741 %)
Storing new data                :      0.000 s ( 2.482 %)
Checking convergence            :      0.000 s ( 3.144 %)
Final printing                  :      0.000 s (17.485 %)
Total time                      :      0.002 s

Time for energy+gradient        :      0.058 s
Time for complete geometry iter :      0.061 s




    ----------------------------------------------------------------------------
                                  WARNING !!!
       The optimization did not converge but reached the maximum number of
       optimization cycles.
       Please check your results very carefully.
    ----------------------------------------------------------------------------



--------------------------------
SUGGESTED CITATIONS FOR THIS RUN
--------------------------------

Below you find a list of papers that are relevant to this ORCA run
We neither can nor want to force you to cite these papers, but we appreciate if you do
You receive ORCA, which is the product of decades of hard work by many enthusiastic individuals, for free
The only thing we kindly ask in return is that you cite our papers,
We deeply appreciate it, if you show your appreciation for ORCA by not just citing the generic ORCA reference.

Please note that relegating all ORCA citations to the supporting information does *not* help us.
SI sections are not indexed - citations you put there will not count into any citation statistics
But we need these citations in order to attract the funding resources that allow us to do what we are doing

Therefore, if you are a happy ORCA user, please consider citing a few of the papers listed below in the main body of your paper

In addition to the list printed below, the program has created the file zigzag_chain12_d2.10_m1.bibtex that contains the list in bibtex format
You can import this file easily into all common literature databanks and citation aid programs

It goes without saying that in many instances, there are alternative algorithms to achieve similar
results as the ones you have gotten from ORCA. It is, of course, also the case that in some instances
ORCA just re-implements algorithms worked out by others. We are fully aware of that and we are also
fully appreciative of our colleagues work. Hence this citation list should not be read as indicating
that the listed papers, which are focused on our own work, are the only ones worth citing. It simply
meant to make it easier for users to cite ORCA specific papers. It is not a substitute for doing your
own literature research and citing the relevant literature in a scientifically appropriate manner.

List of essential papers. We consider these as the minimum necessary citations

  1. Bannwarth, C.; Ehlert, S.; Grimme, S.
     GFN2-xTB—An Accurate and Broadly Parametrized Self-Consistent Tight-Binding Quantum Chemical Method with Multipole Electrostatics and Density-Dependent Dispersion Contributions
     J. Chem. Theory Comput. 2019 15(3), 1652-1671
     doi.org/10.1021/acs.jctc.8b01176
  2. Neese, F.
     Software update: the ORCA program system, version 6.0
     WIRES Comput. Molec. Sci. 2025 15(1), e70019
     doi.org/10.1002/wcms.70019

List of papers to cite with high priority. The work reported in these papers was absolutely
necessary for this run to complete.
Our perspective: the developers of density functionals and basis sets usually get cited in chemistry papers
Good! But without the algorithms to do something with them, the functionals or basis sets would not do anything.
Hence, in our opinion, the algorithm design and method developments papers are equally worthy of getting cited

  1. Bannwarth, C.; Caldeweyher, E.; Ehlert, S.; Hansen, A.; Pracht, P.; Seibert, J.; Spicher, S.; Grimme, S.
     Extended tight-binding quantum chemistry methods
     WIRES Comput. Molec. Sci. 2020 11(2), e1493
     doi.org/10.1002/wcms.1493

List of suggested additional citations. These are papers that are important in the 'surrounding' of 
of this run, or papers that preceded the highly important papers. If you like your results we are grateful for a citation.

  1. Neese, F.
     The ORCA program system
     WIRES Comput. Molec. Sci. 2012 2(1), 73-78
     doi.org/10.1002/wcms.81
  2. Neese, F.
     Software update: the ORCA program system, version 4.0
     WIRES Comput. Molec. Sci. 2018 8(1), 1-6
     doi.org/10.1002/wcms.1327
  3. Neese, F.; Wennmohs, F.; Becker, U.; Riplinger, C.
     The ORCA quantum chemistry program package
     J. Chem. Phys. 2020 152(22), 224108
     doi.org/10.1063/5.0004608
  4. Neese, F.
     Software update: The ORCA program system—Version 5.0
     WIRES Comput. Molec. Sci. 2022 12(1), e1606
     doi.org/10.1002/wcms.1606

List of optional additional citations

  1. Neese, F.
     Approximate second-order SCF convergence for spin unrestricted wavefunctions
     Chem. Phys. Lett. 2000 325(1-3), 93-98
     doi.org/10.1016/s0009-2614(00)00662-x

Timings for individual modules:

Sum of individual times          ...        3.152 sec (=   0.053 min)
Geometry relaxation              ...        0.252 sec (=   0.004 min)   8.0 %
XTB module                       ...        2.899 sec (=   0.048 min)  92.0 %
                             ****ORCA TERMINATED NORMALLY****
TOTAL RUN TIME: 0 days 0 hours 0 minutes 3 seconds 637 msec
