
                                 *****************
                                 * O   R   C   A *
                                 *****************

                                            #,                                       
                                            ###                                      
                                            ####                                     
                                            #####                                    
                                            ######                                   
                                           ########,                                 
                                     ,,################,,,,,                         
                               ,,#################################,,                 
                          ,,##########################################,,             
                       ,#########################################, ''#####,          
                    ,#############################################,,   '####,        
                  ,##################################################,,,,####,       
                ,###########''''           ''''###############################       
              ,#####''   ,,,,##########,,,,          '''####'''          '####       
            ,##' ,,,,###########################,,,                        '##       
           ' ,,###''''                  '''############,,,                           
         ,,##''                                '''############,,,,        ,,,,,,###''
      ,#''                                            '''#######################'''  
     '                                                          ''''####''''         
             ,#######,   #######,   ,#######,      ##                                
            ,#'     '#,  ##    ##  ,#'     '#,    #''#        ,####,    ,#,          
            ##       ##  ##   ,#'  ##            #'  '#       #'       ,# #          
            ##       ##  #######   ##           ,######,      #####,      #          
            '#,     ,#'  ##    ##  '#,     ,#' ,#      #,     #,   #      #          
             '#######'   ##     ##  '#######'  #'      '#     '####' #    #          



                #########################################################
                #                        -***-                          #
                #          Department of theory and spectroscopy        #
                #                                                       #
                #                      Frank Neese                      #
                #                                                       #
                #     Directorship, Architecture, Infrastructure        #
                #                    SHARK, DRIVERS                     #
                #        Core code/Algorithms in most modules           #
                #                                                       #
                #        Max Planck Institute fuer Kohlenforschung      #
                #                Kaiser Wilhelm Platz 1                 #
                #                 D-45470 Muelheim/Ruhr                 #
                #                      Germany                          #
                #                                                       #
                #                  All rights reserved                  #
                #                        -***-                          #
                #########################################################


                         Program Version 6.1.1  -  RELEASE   -
                                (GIT: $487d211c$)
                          ($2025-11-21 10:33:24 +0100$)
                                                                         
                                  - NO-DMRG VERSION -                    
                                                                         


 With contributions from (in alphabetic order):
[Max-Planck-Institut fuer Kohlenforschung]                               
  Daniel Aravena         : Magnetic Suceptibility                        
  Michael Atanasov       : Ab Initio Ligand Field Theory (pilot matlab implementation)
  Alexander A. Auer      : GIAO ZORA, VPT2 properties, NMR spectrum      
  Ute Becker             : All parallelization in ORCA, NUMFREQ, NUMCALC 
  Giovanni Bistoni       : ED, misc. LED, open-shell LED, HFLD           
  Dmytro Bykov           : pre 5.0 version of the SCF Hessian            
  Marcos Casanova-Páez   : Triplet and SCS-CIS(D). UHF-(DLPNO)-IP/EA/STEOM-CCSD. UHF-CVS-IP/STEOM-CCSD   
  Vijay G. Chilkuri      : MRCI spin determinant printing, contributions to CSF-ICE 
  Pauline Colinet        : FMM embedding                                 
  Dipayan Datta          : RHF DLPNO-CCSD density                        
  Achintya Kumar Dutta   : EOM-CC, STEOM-CC                              
  Nicolas Foglia         : Exact transition moments, OPA infrastructure, MCD improvements    
  Dmitry Ganyushin       : Spin-Orbit,Spin-Spin,Magnetic field MRCI      
  Miquel Garcia-Rates    : C-PCM and meta-GGA Hessian, CCSD/C-PCM, Gaussian charge scheme 
  Tiago L. C. Gouveia    : GS-ROHF, GS-ROCIS                             
  Yang Guo               : DLPNO-NEVPT2, F12-NEVPT2, CIM, IAO-localization        
  Andreas Hansen         : Spin unrestricted coupled pair/coupled cluster methods 
  Ingolf Harden          : AUTO-CI MPn and infrastructure                
  Benjamin Helmich-Paris : MC-RPA, TRAH-(SCF,CASSCF), AVAS, COSX integrals, SCF dyn. polar., MC-PDFT, srDFT 
  Lee Huntington         : MR-EOM, pCC                                   
  Robert Izsak           : Overlap fitted RIJCOSX, COSX-SCS-MP3, EOM     
  Riya Kayal             : Wick's Theorem for AUTO-CI, AUTO-CI UHF-CCSDT 
  Emily Kempfer          : AUTO-CI RHF CISDT and CCSDT, approximate NEVPT4
  Christian Kollmar      : KDIIS, OOCD, Brueckner-CCSD(T), CCSD density, CASPT2, CASPT2-K, improved NEVPT2 
  Axel Koslowski         : Symmetry handling                             
  Simone Kossmann        : meta-GGA functionals, TD-DFT gradient, OOMP2, (MP2 Hessian; deprecated post 5.0) 
  Lucas Lang             : DCDCAS, Hyperfine gauge corrections, ICE-SOC+SSC
  Marvin Lechner         : AUTO-CI (C++ implementation), FIC-MRCC        
  Spencer Leger          : CASSCF response                               
  Dagmar Lenk            : GEPOL surface, SMD, ORCA-2-JSON               
  Dimitrios Liakos       : Extrapolation schemes; Compound Job, Property file
  Dimitrios Manganas     : Further ROCIS development; embedding schemes. LFT, Crystal Embedding 
  Dimitrios Pantazis     : SARC Basis sets                               
  Anastasios Papadopoulos: AUTO-CI, single reference methods and gradients 
  Taras Petrenko         : pre 6.0 DFT Hessian and TD-DFT gradient,  ECA, NRVS 
  Petra Pikulova         : Analytic Raman intensities                    
  Peter Pinski           : DLPNO-MP2, DLPNO-MP2 Gradient                 
  Shashank Vittal Rao    : ES-AILFT, MagRelax                            
  Christoph Reimann      : Effective Core Potentials                     
  Marius Retegan         : Local ZFS, SOC                                
  Christoph Riplinger    : Optimizer, TS searches, QM/MM, DLPNO-CCSD(T), (RO)-DLPNO pert. Triples 
  Michael Roemelt        : Original ROCIS implementation, recursive CI coupling coefficients
  Masaaki Saitow         : Open-shell DLPNO-CCSD energy and density      
  Barbara Sandhoefer     : DKH picture change effects                    
  Yorick L. A. Schmerwitz: GMF and freeze-and-release deltaSCF, NEB S-IDPP initial path                    
  Kantharuban Sivalingam : CASSCF convergence/infrastructure, NEVPT2, NEVPT3, NEVPT4(SD), FIC-MRCI and CEPA variants
  Bernardo de Souza      : ESD, SOC TD-DFT                               
  Georgi L. Stoychev     : AutoAux, RI-MP2 NMR, DLPNO-MP2 response, X2C  
  Van Anh Tran           : RI-MP2 g-tensors                              
  Willem Van den Heuvel  : Paramagnetic NMR                              
  Zikuan Wang            : NOTCH, Electric field optimization            
  Frank Wennmohs         : Technical directorship and infrastructure     
  Hang Xu                : AUTO-CI-Response properties                   
                                                                         
[FACCTs GmbH]                                                            
  Markus Bursch, Nicolas Foglia, Miquel Garcia-Rates, Ingolf Harden, Hagen Neugebauer, Anastasios Papadopoulos, 
  Christoph Riplinger, Bernardo de Souza, Georgi L. Stoychev                                                    
                                                                 
  APM, various basis sets, CI-OPT, improved COSX, DLPNO-Multilevel,           
  DOCKER, DRACO, updates on ESD, Fragmentator, GOAT, IRC, LR-CPCM, L-BFGS, MBIS, meta-GGA TD-DFT gradient, ML-optimized integration grids, 
  MM, NACMEs, nearIR, NEB, NEB-TS, NL-DFT gradient (VV10), 2- and 3-layer-ONIOM, interface openCOSMO-RS, QMMM,   
  Crystal-QMMM, RESP, rigid body optimization, SF, symmetry and pop. for TD-DFT, various functionals, SOLVATOR                                   
                                                                         
[Other institutions]                                                     
  V. Asgeirsson          : NEB                                           
  Christoph Bannwarth    : sTDA-DFT, sTD-DFT, PBEh-3c, B97-3c, D3        
  Giovanni Bistoni       : ETS/NOCV, ADLD/ADEX, COVALED                  
  Martin Brehm           : Molecular dynamics                            
  Ronald Cardenas        : ETS/NOCV                                      
  Martina Colucci        : COVALED                                       
  Sebastian Ehlert       : rSCAN, r2SCAN, r2SCAN-3c, D4, dhf basis sets  
  Marvin Friede          : D4 for Fr, Ra, Ac-Lr                          
  Lars Goerigk           : TD-DFT with DH, B97 family of functionals     
  Stefan Grimme          : VdW corrections, initial TS optimization, DFT functionals, gCP, sTDA/sTD-DF 
  Waldemar Hujo          : DFT-NL                                        
  H. Jonsson             : NEB                                           
  Holger Kruse           : gCP                                           
  Marcel Mueller         : wB97X-3c, vDZP basis set                      
  Hagen Neugebauer       : wr2SCAN, Native XTB                           
  Gianluca Regni         : ADLD/ADEX                                     
  Tobias Risthaus        : pre 6.0 range-separated hybrid DFT and stability analysis
  Lukas Wittmann         : regularized MP2, r2SCAN double-hybrids, wr2SCAN        
                                                                         
We gratefully acknowledge several colleagues who have allowed us to      
interface, adapt or use parts of their codes:                            
  Ed Valeev, F. Pavosevic, A. Kumar             : LibInt (2-el integral package), F12 methods 
  Garnet Chan, S. Sharma, J. Yang, R. Olivares  : DMRG                   
  Ulf Ekstrom                                   : XCFun DFT Library      
  Mihaly Kallay                                 : mrcc  (arbitrary order and MRCC methods)
  Frank Weinhold                                : gennbo (NPA and NBO analysis)           
  Simon Mueller                                 : openCOSMO-RS                            
  Christopher J. Cramer and Donald G. Truhlar   : smd solvation model                     
  S Lehtola, MJT Oliveira, MAL Marques          : LibXC Library                           
  Liviu Ungur et al                             : ANISO software                          


 Your calculation uses the libint2 library for the computation of 2-el integrals
 For citations please refer to: http://libint.valeyev.net

 Your ORCA version has been built with support for libXC version: 7.0.0
 For citations please refer to: https://libxc.gitlab.io

 This ORCA versions uses:
   CBLAS   interface :  Fast vector & matrix operations
   LAPACKE interface :  Fast linear algebra routines
   SCALAPACK package :  Parallel linear algebra routines
   Shared memory     :  Shared parallel matrices
   BLAS/LAPACK       :  OpenBLAS 0.3.29  USE64BITINT DYNAMIC_ARCH NO_AFFINITY Zen SINGLE_THREADED
        Core in use  :  Zen
   Copyright (c) 2011-2014, The OpenBLAS Project


  ***********************************
  * Starting time: Fri Apr 17 12:14:29 2026
  * Host name:     vmi3233575
  * Process ID:    335652
  * Working dir.:  /root/orca_b12_vps_pack/jobs/01_xtb/mult_1
  ***********************************

NOTE: MaxCore=500 MB was set to SCF,MP2,MDCI,CIPSI,MRCI,RASCI and CIS
      => If you want to overwrite this, your respective input block should be placed after the MaxCore statement


***************************************
The coordinates will be read from file: ../../../starts/zigzag_chain12_d1.90.xyz
***************************************


Your calculation utilizes the semiempirical GFN2-xTB method
Please cite in your paper:
Bannwarth, C.; Ehlert S.; Grimme, S. J. Chem. Theory Comput. 2019, 15, 1652.
   

================================================================================

================================================================================
                                        WARNINGS
                       Please study these warnings very carefully!
================================================================================


WARNING: Geometry Optimization
  ===> : Switching off AutoStart
         For restart on a previous wavefunction, please use MOREAD

WARNING: Found dipole moment calculation with XTB calculation
  ===> : Switching off dipole moment calculation

Environment variable XTBEXE for xtb has been set!

================================================================================
                                       INPUT FILE
================================================================================
NAME = zigzag_chain12_d1.90_m1.inp
|  1> ! GFN2-xTB TightSCF TightOpt
|  2> 
|  3> %pal
|  4>   nprocs 1
|  5> end
|  6> 
|  7> %maxcore 500
|  8> 
|  9> * xyzfile 0 1 ../../../starts/zigzag_chain12_d1.90.xyz
| 10> 
| 11>                          ****END OF INPUT****
================================================================================

                       *****************************
                       * Geometry Optimization Run *
                       *****************************

Geometry optimization settings:
Update method            Update   .... BFGS
Choice of coordinates    CoordSys .... (2022) Redundant Internals
Initial Hessian          InHess   .... Almloef's Model
Max. no of cycles        MaxIter  .... 50

Convergence Tolerances:
Energy Change            TolE     ....  1.0000e-06 Eh
Max. Gradient            TolMAXG  ....  1.0000e-04 Eh/bohr
RMS Gradient             TolRMSG  ....  3.0000e-05 Eh/bohr
Max. Displacement        TolMAXD  ....  1.0000e-03 bohr
RMS Displacement         TolRMSD  ....  6.0000e-04 bohr
Strict Convergence                .... False

------------------------------------------------------------------------------
                        ORCA OPTIMIZATION COORDINATE SETUP
------------------------------------------------------------------------------

The optimization will be done in redundant internal coordinates (2022)
Making redundant internal coordinates   ...  (2022 redundants) done
Evaluating the initial hessian          ...  (Almloef) done
Evaluating the coordinates              ...  done
Calculating the B-matrix                .... done
Calculating the G-matrix                .... done
The number of degrees of freedom        ....   31

    -----------------------------------------------------------------
                    Redundant Internal Coordinates


    -----------------------------------------------------------------
         Definition                    Initial Value    Approx d2E/dq
    -----------------------------------------------------------------
      1. B(B   1,B   0)                  2.1965         0.043324   
      2. B(B   2,B   1)                  2.1965         0.043324   
      3. B(B   3,B   2)                  2.1965         0.043324   
      4. B(B   4,B   3)                  2.1965         0.043324   
      5. B(B   5,B   4)                  2.1965         0.043324   
      6. B(B   6,B   5)                  2.1965         0.043324   
      7. B(B   6,B   0)                 10.4880         0.010000   
      8. B(B   7,B   6)                  2.1965         0.043324   
      9. B(B   8,B   7)                  2.1965         0.043324   
     10. B(B   9,B   8)                  2.1965         0.043324   
     11. B(B  10,B   9)                  2.1965         0.043324   
     12. B(B  11,B  10)                  2.1965         0.043324   
     13. A(B   0,B   1,B   2)          105.4672         0.196954   
     14. A(B   1,B   2,B   3)          105.4672         0.196954   
     15. A(B   2,B   3,B   4)          105.4672         0.196954   
     16. A(B   3,B   4,B   5)          105.4672         0.196954   
     17. A(B   4,B   5,B   6)          105.4672         0.196954   
     18. A(B   5,B   6,B   7)          105.4672         0.196954   
     19. A(B   6,B   7,B   8)          105.4672         0.196954   
     20. A(B   7,B   8,B   9)          105.4672         0.196954   
     21. A(B   8,B   9,B  10)          105.4672         0.196954   
     22. A(B   9,B  10,B  11)          105.4672         0.196954   
     23. D(B   3,B   2,B   1,B   0)    180.0000         0.010000   
     24. D(B   4,B   3,B   2,B   1)    180.0000         0.010000   
     25. D(B   5,B   4,B   3,B   2)    180.0000         0.010000   
     26. D(B   6,B   5,B   4,B   3)    180.0000         0.010000   
     27. D(B   7,B   6,B   5,B   4)    180.0000         0.010000   
     28. D(B   8,B   7,B   6,B   5)    180.0000         0.010000   
     29. D(B   9,B   8,B   7,B   6)    180.0000         0.010000   
     30. D(B  10,B   9,B   8,B   7)    180.0000         0.010000   
     31. D(B  11,B  10,B   9,B   8)    180.0000         0.010000   
    -----------------------------------------------------------------

Number of atoms                         .... 12
Number of degrees of freedom            .... 31


         *************************************************************
         *                GEOMETRY OPTIMIZATION CYCLE   1            *
         *************************************************************
---------------------------------
CARTESIAN COORDINATES (ANGSTROEM)
---------------------------------
  B    -9.614000    0.665000    0.000000
  B    -7.866000   -0.665000    0.000000
  B    -6.118000    0.665000    0.000000
  B    -4.370000   -0.665000    0.000000
  B    -2.622000    0.665000    0.000000
  B    -0.874000   -0.665000    0.000000
  B     0.874000    0.665000    0.000000
  B     2.622000   -0.665000    0.000000
  B     4.370000    0.665000    0.000000
  B     6.118000   -0.665000    0.000000
  B     7.866000    0.665000    0.000000
  B     9.614000   -0.665000    0.000000

----------------------------
CARTESIAN COORDINATES (A.U.)
----------------------------
  NO LB    ZA    FRAG    MASS        X           Y           Z
   0 B   5.0000    0    10.810  -18.167827    1.256668    0.000000
   1 B   5.0000    0    10.810  -14.864586   -1.256668    0.000000
   2 B   5.0000    0    10.810  -11.561344    1.256668    0.000000
   3 B   5.0000    0    10.810   -8.258103   -1.256668    0.000000
   4 B   5.0000    0    10.810   -4.954862    1.256668    0.000000
   5 B   5.0000    0    10.810   -1.651621   -1.256668    0.000000
   6 B   5.0000    0    10.810    1.651621    1.256668    0.000000
   7 B   5.0000    0    10.810    4.954862   -1.256668    0.000000
   8 B   5.0000    0    10.810    8.258103    1.256668    0.000000
   9 B   5.0000    0    10.810   11.561344   -1.256668    0.000000
  10 B   5.0000    0    10.810   14.864586    1.256668    0.000000
  11 B   5.0000    0    10.810   18.167827   -1.256668    0.000000

      -----------------------------------------------------------      
     |                   =====================                   |     
     |                           x T B                           |     
     |                   =====================                   |     
     |                         S. Grimme                         |     
     |          Mulliken Center for Theoretical Chemistry        |     
     |                    University of Bonn                     |     
      -----------------------------------------------------------      

   * xtb version 6.6.1 (unknown) compiled by 'builduser@buildhost' on 2023-08-07

   xtb is free software: you can redistribute it and/or modify it under
   the terms of the GNU Lesser General Public License as published by
   the Free Software Foundation, either version 3 of the License, or
   (at your option) any later version.
   
   xtb is distributed in the hope that it will be useful,
   but WITHOUT ANY WARRANTY; without even the implied warranty of
   MERCHANTABILITY or FITNESS FOR A PARTICULAR PURPOSE.  See the
   GNU Lesser General Public License for more details.
   
   Cite this work as:
   * C. Bannwarth, E. Caldeweyher, S. Ehlert, A. Hansen, P. Pracht,
     J. Seibert, S. Spicher, S. Grimme, WIREs Comput. Mol. Sci., 2020, 11,
     e01493. DOI: 10.1002/wcms.1493
   
   for GFN2-xTB:
   * C. Bannwarth, S. Ehlert and S. Grimme., J. Chem. Theory Comput., 2019,
     15, 1652-1671. DOI: 10.1021/acs.jctc.8b01176
   for GFN1-xTB:
   * S. Grimme, C. Bannwarth, P. Shushkov, J. Chem. Theory Comput., 2017,
     13, 1989-2009. DOI: 10.1021/acs.jctc.7b00118
   for GFN0-xTB:
   * P. Pracht, E. Caldeweyher, S. Ehlert, S. Grimme, ChemRxiv, 2019, preprint.
     DOI: 10.26434/chemrxiv.8326202.v1
   for GFN-FF:
   * S. Spicher and S. Grimme, Angew. Chem. Int. Ed., 2020, 59, 15665-15673.
     DOI: 10.1002/anie.202004239
   
   for ALPB and GBSA implicit solvation:
   * S. Ehlert, M. Stahn, S. Spicher, S. Grimme, J. Chem. Theory Comput.,
     2021, 17, 4250-4261. DOI: 10.1021/acs.jctc.1c00471
   
   for DFT-D4:
   * E. Caldeweyher, C. Bannwarth and S. Grimme, J. Chem. Phys., 2017,
     147, 034112. DOI: 10.1063/1.4993215
   * E. Caldeweyher, S. Ehlert, A. Hansen, H. Neugebauer, S. Spicher,
     C. Bannwarth and S. Grimme, J. Chem. Phys., 2019, 150, 154122.
     DOI: 10.1063/1.5090222
   * E. Caldeweyher, J.-M. Mewes, S. Ehlert and S. Grimme, Phys. Chem. Chem. Phys.
     2020, 22, 8499-8512. DOI: 10.1039/D0CP00502A
   
   for sTDA-xTB:
   * S. Grimme and C. Bannwarth, J. Chem. Phys., 2016, 145, 054103.
     DOI: 10.1063/1.4959605
   
   in the mass-spec context:
   * V. Asgeirsson, C. Bauer and S. Grimme, Chem. Sci., 2017, 8, 4879.
     DOI: 10.1039/c7sc00601b
   * J. Koopman and S. Grimme, ACS Omega 2019, 4, 12, 15120-15133.
     DOI: 10.1021/acsomega.9b02011
   
   for metadynamics refer to:
   * S. Grimme, J. Chem. Theory Comput., 2019, 155, 2847-2862
     DOI: 10.1021/acs.jctc.9b00143
   
   for SPH calculations refer to:
   * S. Spicher and S. Grimme, J. Chem. Theory Comput., 2021, 17, 1701-1714
     DOI: 10.1021/acs.jctc.0c01306
   
   with help from (in alphabetical order)
   P. Atkinson, C. Bannwarth, F. Bohle, G. Brandenburg, E. Caldeweyher
   M. Checinski, S. Dohm, S. Ehlert, S. Ehrlich, I. Gerasimov, C. Hölzer
   A. Katbashev, J. Koopman, C. Lavigne, S. Lehtola, F. März, M. Müller,
   F. Musil, H. Neugebauer, J. Pisarek, C. Plett, P. Pracht, F. Pultar,
   J. Seibert, P. Shushkov, S. Spicher, M. Stahn, M. Steiner, T. Strunk,
   J. Stückrath, T. Rose, and J. Unsleber
   
 * started run on 2026/04/17 at 12:14:29.213     

           -------------------------------------------------
          |                Calculation Setup                |
           -------------------------------------------------

          program call               : /usr/bin/xtb zigzag_chain12_d1.90_m1_XTB.xyz --grad -c 0 -u 0 -P 1 --namespace zigzag_chain12_d1.90_m1 --input zigzag_chain12_d1.90_m1_XTB.input.tmp --acc 0.200000
          calculation namespace      : zigzag_chain12_d1.90_m1
          coordinate file            : zigzag_chain12_d1.90_m1_XTB.xyz
          omp threads                :                     1

   ID    Z sym.   atoms
    1    5 B      1-12

molecular fragmentation (1/2 indicates fragments):
122222222222
# atoms in fragment 1/2:     1    11
 fragment masses (1/2) :       10.81      118.92
CMA distance (Bohr)    :  19.867
constraining FC (au)   :  0.0500

           -------------------------------------------------
          |                 G F N 2 - x T B                 |
           -------------------------------------------------

        Reference                      10.1021/acs.jctc.8b01176
      * Hamiltonian:
        H0-scaling (s, p, d)           1.850000    2.230000    2.230000
        zeta-weighting                 0.500000
      * Dispersion:
        s8                             2.700000
        a1                             0.520000
        a2                             5.000000
        s9                             5.000000
      * Repulsion:
        kExp                           1.500000    1.000000
        rExp                           1.000000
      * Coulomb:
        alpha                          2.000000
        third order                    shell-resolved
        anisotropic                    true
        a3                             3.000000
        a5                             4.000000
        cn-shift                       1.200000
        cn-exp                         4.000000
        max-rad                        5.000000


          ...................................................
          :                      SETUP                      :
          :.................................................:
          :  # basis functions                  48          :
          :  # atomic orbitals                  48          :
          :  # shells                           24          :
          :  # electrons                        36          :
          :  max. iterations                   250          :
          :  Hamiltonian                  GFN2-xTB          :
          :  restarted?                      false          :
          :  GBSA solvation                  false          :
          :  PC potential                    false          :
          :  electronic temp.          300.0000000     K    :
          :  accuracy                    0.2000000          :
          :  -> integral cutoff          0.3198970E+02      :
          :  -> integral neglect         0.2000000E-08      :
          :  -> SCF convergence          0.2000000E-06 Eh   :
          :  -> wf. convergence          0.2000000E-04 e    :
          :  Broyden damping             0.4000000          :
          ...................................................

 iter      E             dE          RMSdq      gap      omega  full diag
   1    -12.6773523 -0.126774E+02  0.238E+01    0.14       0.0  T
   2      1.5326647  0.142100E+02  0.236E+01    0.27       1.0  T
   3     24.4175911  0.228849E+02  0.295E+01    0.02       1.0  T
   4     18.4096653 -0.600793E+01  0.316E+01    0.66       1.0  T
   5      3.7570817 -0.146526E+02  0.203E+01    0.18       1.0  T
   6     -6.1838441 -0.994093E+01  0.178E+01    0.00       1.0  T
   7     -0.6753047  0.550854E+01  0.193E+01    0.12       1.0  T
   8    -10.5022928 -0.982699E+01  0.125E+01    0.07       1.0  T
   9     -6.3151358  0.418716E+01  0.148E+01    0.29       1.0  T
  10     -7.6789185 -0.136378E+01  0.128E+01    0.08       1.0  T
  11     -7.7330526 -0.541341E-01  0.126E+01    0.08       1.0  T
  12     -7.8933966 -0.160344E+00  0.126E+01    0.08       1.0  T
  13     -7.9059464 -0.125498E-01  0.125E+01    0.08       1.0  T
  14     -7.6121181  0.293828E+00  0.132E+01    0.11       1.0  T
  15     -8.2564494 -0.644331E+00  0.114E+01    0.14       1.0  T
  16     -9.3682598 -0.111181E+01  0.111E+01    0.11       1.0  T
  17     -9.5252775 -0.157018E+00  0.108E+01    0.11       1.0  T
  18    -10.8529962 -0.132772E+01  0.923E+00    0.07       1.0  T
  19    -12.5628708 -0.170987E+01  0.616E+00    0.03       1.0  T
  20    -12.3129282  0.249943E+00  0.548E+00    0.01       1.0  T
  21    -11.8909561  0.421972E+00  0.565E+00    0.05       1.0  T
  22    -12.2179084 -0.326952E+00  0.503E+00    0.04       1.0  T
  23    -12.1977906  0.201177E-01  0.503E+00    0.04       1.0  T
  24    -12.2358238 -0.380331E-01  0.504E+00    0.04       1.0  T
  25    -12.3621220 -0.126298E+00  0.503E+00    0.02       1.0  T
  26    -12.4448208 -0.826987E-01  0.508E+00    0.01       1.0  T
  27    -12.4432194  0.160134E-02  0.508E+00    0.01       1.0  T
  28    -12.2664788  0.176741E+00  0.524E+00    0.02       1.0  T
  29    -12.2174136  0.490652E-01  0.530E+00    0.03       1.0  T
  30    -12.4684352 -0.251022E+00  0.512E+00    0.00       1.0  T
  31    -12.5287770 -0.603418E-01  0.509E+00    0.01       1.0  T
  32    -12.5003008  0.284762E-01  0.499E+00    0.00       1.0  T
  33    -11.7820782  0.718223E+00  0.484E+00    0.07       1.0  T
  34    -12.2901338 -0.508056E+00  0.389E+00    0.02       1.0  T
  35    -12.2313470  0.587868E-01  0.396E+00    0.02       1.0  T
  36    -12.0942190  0.137128E+00  0.415E+00    0.04       1.0  T
  37    -12.2979108 -0.203692E+00  0.392E+00    0.02       1.0  T
  38    -12.3598184 -0.619076E-01  0.404E+00    0.01       1.0  T
  39    -12.2798767  0.799417E-01  0.426E+00    0.02       1.0  T
  40    -12.3647306 -0.848539E-01  0.432E+00    0.00       1.0  T
  41    -12.3273229  0.374077E-01  0.457E+00    0.01       1.0  T
  42    -12.2790662  0.482567E-01  0.485E+00    0.01       1.0  T
  43    -12.2263665  0.526997E-01  0.485E+00    0.02       1.0  T
  44    -12.2038849  0.224816E-01  0.489E+00    0.02       1.0  T
  45    -12.1853358  0.185491E-01  0.498E+00    0.02       1.0  T
  46    -12.2228476 -0.375118E-01  0.472E+00    0.02       1.0  T
  47    -12.3334059 -0.110558E+00  0.451E+00    0.01       1.0  T
  48    -12.3470365 -0.136306E-01  0.420E+00    0.01       1.0  T
  49    -12.4441420 -0.971055E-01  0.317E+00    0.01       1.0  T
  50    -12.5305136 -0.863716E-01  0.257E+00    0.00       1.0  T
  51    -12.5439541 -0.134405E-01  0.239E+00    0.00       1.0  T
  52    -12.7184957 -0.174542E+00  0.108E+00    0.02       1.0  T
  53    -12.7069389  0.115569E-01  0.115E+00    0.02       1.0  T
  54    -12.7128560 -0.591719E-02  0.110E+00    0.02       1.0  T
  55    -12.7451728 -0.323167E-01  0.962E-01    0.02       1.0  T
  56    -12.7506993 -0.552648E-02  0.965E-01    0.03       1.0  T
  57    -12.7513225 -0.623208E-03  0.103E+00    0.03       1.0  T
  58    -12.7534791 -0.215660E-02  0.102E+00    0.03       1.0  T
  59    -12.7558142 -0.233517E-02  0.923E-01    0.03       1.0  T
  60    -12.7556693  0.144963E-03  0.876E-01    0.03       1.0  T
  61    -12.7558858 -0.216555E-03  0.885E-01    0.03       1.0  T
  62    -12.7559084 -0.225685E-04  0.824E-01    0.03       1.0  T
  63    -12.7559716 -0.632404E-04  0.766E-01    0.03       1.0  T
  64    -12.7554126  0.559007E-03  0.677E-01    0.03       1.0  T
  65    -12.7560687 -0.656064E-03  0.548E-01    0.03       1.0  T
  66    -12.7547928  0.127587E-02  0.313E-01    0.03       1.0  T
  67    -12.7551654 -0.372612E-03  0.219E-01    0.03       1.0  T
  68    -12.7554727 -0.307298E-03  0.188E-01    0.03       1.0  T
  69    -12.7558985 -0.425767E-03  0.181E-01    0.03       1.0  T
  70    -12.7559534 -0.549396E-04  0.182E-01    0.03       1.0  T
  71    -12.7561408 -0.187352E-03  0.144E-01    0.03       1.0  T
  72    -12.7561707 -0.299246E-04  0.100E-01    0.03       1.0  T
  73    -12.7562238 -0.530978E-04  0.765E-02    0.03       1.0  T
  74    -12.7562713 -0.474979E-04  0.494E-02    0.03       1.0  T
  75    -12.7563086 -0.372632E-04  0.240E-02    0.03       1.2  T
  76    -12.7563096 -0.976008E-06  0.154E-02    0.03       1.9  T
  77    -12.7563098 -0.227385E-06  0.100E-02    0.03       2.9  T
  78    -12.7563092  0.629157E-06  0.949E-03    0.03       3.0  T
  79    -12.7563102 -0.105588E-05  0.124E-02    0.03       2.3  T
  80    -12.7563099  0.276333E-06  0.852E-03    0.03       3.4  T
  81    -12.7563100 -0.102659E-06  0.398E-03    0.03       7.3  T
  82    -12.7563103 -0.266281E-06  0.214E-03    0.03      13.5  T
  83    -12.7563103 -0.299252E-08  0.150E-03    0.03      19.3  T
  84    -12.7563103 -0.131255E-08  0.105E-03    0.03      27.6  T
  85    -12.7563103  0.921016E-08  0.108E-03    0.03      26.7  T
  86    -12.7563103 -0.232419E-07  0.757E-04    0.03      38.1  T
  87    -12.7563103 -0.497499E-08  0.557E-04    0.03      51.8  T
  88    -12.7563103  0.334439E-08  0.662E-04    0.03      43.6  T
  89    -12.7563103 -0.217637E-08  0.442E-04    0.03      65.3  T
  90    -12.7563103 -0.158416E-08  0.351E-04    0.03      82.3  T
  91    -12.7563103 -0.183608E-08  0.192E-04    0.03     150.7  T
  92    -12.7563103 -0.426130E-09  0.155E-04    0.03     186.7  T

   *** convergence criteria satisfied after 92 iterations ***

         #    Occupation            Energy/Eh            Energy/eV
      -------------------------------------------------------------
         1        2.0000           -0.3702687             -10.0755
       ...           ...                  ...                  ...
        12        2.0000           -0.2714140              -7.3855
        13        2.0000           -0.2686280              -7.3097
        14        2.0000           -0.2666289              -7.2553
        15        2.0000           -0.2621618              -7.1338
        16        1.9991           -0.2586327              -7.0378
        17        1.8422           -0.2536534              -6.9023
        18        1.3728           -0.2520632              -6.8590 (HOMO)
        19        0.7778           -0.2508895              -6.8271 (LUMO)
        20        0.0042           -0.2454538              -6.6791
        21        0.0040           -0.2454257              -6.6784
        22        0.0000           -0.2372359              -6.4555
        23        0.0000           -0.2371837              -6.4541
       ...           ...                  ...                  ...
        48                         -0.0110273              -0.3001
      -------------------------------------------------------------
                  HL-Gap            0.0011737 Eh            0.0319 eV
             Fermi-level           -0.2513190 Eh           -6.8387 eV

 SCC (total)                   0 d,  0 h,  0 min,  0.129 sec
 SCC setup                      ...        0 min,  0.000 sec (  0.117%)
 Dispersion                     ...        0 min,  0.000 sec (  0.072%)
 classical contributions        ...        0 min,  0.000 sec (  0.027%)
 integral evaluation            ...        0 min,  0.002 sec (  1.465%)
 iterations                     ...        0 min,  0.122 sec ( 94.540%)
 molecular gradient             ...        0 min,  0.005 sec (  3.557%)
 printout                       ...        0 min,  0.000 sec (  0.206%)

         :::::::::::::::::::::::::::::::::::::::::::::::::::::
         ::                     SUMMARY                     ::
         :::::::::::::::::::::::::::::::::::::::::::::::::::::
         :: total energy             -12.755360046170 Eh    ::
         :: gradient norm              0.352739547300 Eh/a0 ::
         :: HOMO-LUMO gap              0.031937318090 eV    ::
         ::.................................................::
         :: SCC energy               -12.756310325731 Eh    ::
         :: -> isotropic ES            0.035973597495 Eh    ::
         :: -> anisotropic ES          0.001257774356 Eh    ::
         :: -> anisotropic XC         -0.049832615572 Eh    ::
         :: -> dispersion             -0.015942563458 Eh    ::
         :: repulsion energy           0.001234519398 Eh    ::
         :: add. restraining           0.000000000000 Eh    ::
         :: total charge               0.000000000000 e     ::
         :::::::::::::::::::::::::::::::::::::::::::::::::::::


Property printout bound to 'properties.out'

           -------------------------------------------------
          | TOTAL ENERGY              -12.755360046170 Eh   |
          | GRADIENT NORM               0.352739547300 Eh/α |
          | HOMO-LUMO GAP               0.031937318090 eV   |
           -------------------------------------------------

------------------------------------------------------------------------
 * finished run on 2026/04/17 at 12:14:29.354     
------------------------------------------------------------------------
 total:
 * wall-time:     0 d,  0 h,  0 min,  0.141 sec
 *  cpu-time:     0 d,  0 h,  0 min,  0.129 sec
 * ratio c/w:     0.916 speedup
 SCF:
 * wall-time:     0 d,  0 h,  0 min,  0.129 sec
 *  cpu-time:     0 d,  0 h,  0 min,  0.117 sec
 * ratio c/w:     0.909 speedup


-------------------------   --------------------
FINAL SINGLE POINT ENERGY       -12.755360046170
-------------------------   --------------------


-------------
DIPOLE MOMENT
-------------
                                X             Y             Z
Total Dipole Moment    :     -0.00000       0.00000       0.00000
                        -----------------------------------------
Magnitude (a.u.)       :      0.00000
Magnitude (Debye)      :      0.00000


------------------
CARTESIAN GRADIENT
------------------

   1   B   :   -0.054323928    0.045969896    0.000000000
   2   B   :    0.002193296   -0.099010286   -0.000000000
   3   B   :    0.004329739    0.107800272    0.000000000
   4   B   :    0.003544403   -0.109633738   -0.000000000
   5   B   :    0.000402243    0.109201037    0.000000000
   6   B   :    0.000756874   -0.108365354    0.000000000
   7   B   :   -0.000756882    0.108365361   -0.000000000
   8   B   :   -0.000402270   -0.109201059   -0.000000000
   9   B   :   -0.003544391    0.109633775    0.000000000
  10   B   :   -0.004329760   -0.107800317   -0.000000000
  11   B   :   -0.002193227    0.099010292    0.000000000
  12   B   :    0.054323903   -0.045969880    0.000000000

Difference to translation invariance:
           :   -0.0000000000   -0.0000000000    0.0000000000

Difference to rotation invariance:
           :    0.0000000000   -0.0000000000    0.0080177478

Norm of the Cartesian gradient     ...    0.3527395473
RMS gradient                       ...    0.0587899245
MAX gradient                       ...    0.1096337750
------------------------------------------------------------------------------
                         ORCA GEOMETRY RELAXATION STEP
------------------------------------------------------------------------------

Reading the OPT-File                    .... done
Getting information on internals        .... done
Copying old internal coords+grads       .... done
Making the new internal coordinates     .... (2022 redundants) done
Validating the new internal coordinates .... (2022 redundants) done
Calculating the B-matrix                .... done
Calculating the G,G- and P matrices     .... done
Transforming gradient to internals      .... done
Projecting the internal gradient        .... done
Number of atoms                         ....  12
Number of internal coordinates          ....  31
Current Energy                          ....   -12.755360046 Eh
Current gradient norm                   ....     0.352739547 Eh/bohr
Maximum allowed component of the step   ....  0.300
Current trust radius                    ....  0.300
Evaluating the initial hessian          ....  (Almloef) done
Projecting the Hessian                  .... done
Forming the augmented Hessian           .... done
Diagonalizing the augmented Hessian     .... done
Last element of RFO vector              ....  0.749900654
Lowest eigenvalues of augmented Hessian:
 -0.219257531  0.010000000  0.010000000  0.010000000  0.010000000
Length of the computed step             ....  0.882184134
Warning: the length of the step is outside the trust region - taking restricted step instead
The input lambda is                     ....     0.009000
   iter:   5  x=   -0.096271  g=  114.098625 f(x)=     5.475694
   iter:  10  x=   -0.702816  g=    0.481525 f(x)=     0.063210
   iter:  15  x=   -0.765682  g=    0.216361 f(x)=     0.000000
The output lambda is                    ....    -0.765682 (15 iterations)
The final length of the internal step   ....  0.300000000
Converting the step to Cartesian space:
 Initial RMS(Int)=    0.0538815906
Transforming coordinates:
 Iter   0:  RMS(Cart)=    0.0787387413 RMS(Int)=    0.0532377390
 Iter   5:  RMS(Cart)=    0.0000000107 RMS(Int)=    0.0000000054
done
Storing new coordinates                 .... done

                                .--------------------.
          ----------------------|Geometry convergence|-------------------------
          Item                value                   Tolerance       Converged
          ---------------------------------------------------------------------
          RMS gradient        0.0449831380            0.0000300000      NO
          MAX gradient        0.0735026699            0.0001000000      NO
          RMS step            0.0538815906            0.0006000000      NO
          MAX step            0.0908555102            0.0010000000      NO
          -------------------------------------------------------------------------
          ........................................................
          Max(Bonds)      0.0481      Max(Angles)    3.19
          Max(Dihed)        0.00      Max(Improp)    0.00
          ---------------------------------------------------------------------

The optimization has not yet converged - more geometry cycles are needed


    ---------------------------------------------------------------------------
                         Redundant Internal Coordinates
                            (Angstroem and degrees)

        Definition                    Value    dE/dq     Step     New-Value
    ----------------------------------------------------------------------------
     1. B(B   1,B   0)                2.1965  0.066997 -0.0426    2.1539   
     2. B(B   2,B   1)                2.1965  0.069381 -0.0442    2.1523   
     3. B(B   3,B   2)                2.1965  0.067210 -0.0427    2.1537   
     4. B(B   4,B   3)                2.1965  0.064164 -0.0407    2.1557   
     5. B(B   5,B   4)                2.1965  0.063848 -0.0405    2.1559   
     6. B(B   6,B   5)                2.1965  0.062715 -0.0398    2.1567   
     7. B(B   6,B   0)               10.4880  0.005179 -0.0051   10.4829   
     8. B(B   7,B   6)                2.1965  0.067969 -0.0445    2.1520   
     9. B(B   8,B   7)                2.1965  0.068285 -0.0447    2.1518   
    10. B(B   9,B   8)                2.1965  0.071332 -0.0467    2.1498   
    11. B(B  10,B   9)                2.1965  0.073503 -0.0481    2.1484   
    12. B(B  11,B  10)                2.1965  0.071119 -0.0465    2.1499   
    13. A(B   0,B   1,B   2)          105.47 -0.028653    2.06    107.53   
    14. A(B   1,B   2,B   3)          105.47 -0.027993    1.67    107.13   
    15. A(B   2,B   3,B   4)          105.47 -0.046533    3.12    108.59   
    16. A(B   3,B   4,B   5)          105.47 -0.035628    2.12    107.59   
    17. A(B   4,B   5,B   6)          105.47 -0.047610    3.19    108.65   
    18. A(B   5,B   6,B   7)          105.47 -0.034593    2.06    107.53   
    19. A(B   6,B   7,B   8)          105.47 -0.035628    2.12    107.59   
    20. A(B   7,B   8,B   9)          105.47 -0.033516    1.99    107.46   
    21. A(B   8,B   9,B  10)          105.47 -0.027993    1.67    107.13   
    22. A(B   9,B  10,B  11)          105.47 -0.015636    0.93    106.40   
    23. D(B   3,B   2,B   1,B   0)    180.00 -0.000000   -0.00    180.00   
    24. D(B   4,B   3,B   2,B   1)    180.00  0.000000   -0.00    180.00   
    25. D(B   5,B   4,B   3,B   2)    180.00 -0.000000   -0.00    180.00   
    26. D(B   6,B   5,B   4,B   3)    180.00  0.000000   -0.00    180.00   
    27. D(B   7,B   6,B   5,B   4)    180.00 -0.000000   -0.00    180.00   
    28. D(B   8,B   7,B   6,B   5)    180.00  0.000000   -0.00    180.00   
    29. D(B   9,B   8,B   7,B   6)    180.00 -0.000000   -0.00    180.00   
    30. D(B  10,B   9,B   8,B   7)    180.00  0.000000   -0.00    180.00   
    31. D(B  11,B  10,B   9,B   8)    180.00 -0.000000   -0.00    180.00   
    ----------------------------------------------------------------------------

Geometry step timings:
Preparation and reading OPT file:      0.000 s ( 2.341 %)
Internal coordinates            :      0.000 s ( 1.814 %)
B/P matrices and projection     :      0.000 s (28.555 %)
Hessian update/contruction      :      0.000 s (15.448 %)
Making the step                 :      0.000 s (21.884 %)
Converting the step to Cartesian:      0.000 s ( 4.506 %)
Storing new data                :      0.000 s ( 2.633 %)
Checking convergence            :      0.000 s ( 3.686 %)
Final printing                  :      0.000 s (19.134 %)
Total time                      :      0.002 s

Time for energy+gradient        :      0.152 s
Time for complete geometry iter :      0.155 s

         *************************************************************
         *                GEOMETRY OPTIMIZATION CYCLE   2            *
         *************************************************************
---------------------------------
CARTESIAN COORDINATES (ANGSTROEM)
---------------------------------
  B    -9.584779    0.527996    0.000000
  B    -7.803837   -0.683845   -0.000000
  B    -6.110941    0.645704    0.000000
  B    -4.340506   -0.581193   -0.000000
  B    -2.609469    0.704035    0.000000
  B    -0.861090   -0.557854    0.000000
  B     0.896433    0.692547    0.000000
  B     2.614104   -0.603863    0.000000
  B     4.368768    0.641665   -0.000000
  B     6.081839   -0.657181    0.000000
  B     7.826556    0.596402   -0.000000
  B     9.522923   -0.724413    0.000000

----------------------------
CARTESIAN COORDINATES (A.U.)
----------------------------
  NO LB    ZA    FRAG    MASS        X           Y           Z
   0 B   5.0000    0    10.810  -18.112608    0.997768    0.000000
   1 B   5.0000    0    10.810  -14.747115   -1.292279   -0.000000
   2 B   5.0000    0    10.810  -11.548004    1.220204    0.000000
   3 B   5.0000    0    10.810   -8.202368   -1.098296   -0.000000
   4 B   5.0000    0    10.810   -4.931181    1.330433    0.000000
   5 B   5.0000    0    10.810   -1.627224   -1.054191    0.000000
   6 B   5.0000    0    10.810    1.694012    1.308725    0.000000
   7 B   5.0000    0    10.810    4.939941   -1.141136    0.000000
   8 B   5.0000    0    10.810    8.255775    1.212572   -0.000000
   9 B   5.0000    0    10.810   11.493009   -1.241893    0.000000
  10 B   5.0000    0    10.810   14.790048    1.127036   -0.000000
  11 B   5.0000    0    10.810   17.995716   -1.368943    0.000000

      -----------------------------------------------------------      
     |                   =====================                   |     
     |                           x T B                           |     
     |                   =====================                   |     
     |                         S. Grimme                         |     
     |          Mulliken Center for Theoretical Chemistry        |     
     |                    University of Bonn                     |     
      -----------------------------------------------------------      

   * xtb version 6.6.1 (unknown) compiled by 'builduser@buildhost' on 2023-08-07

   xtb is free software: you can redistribute it and/or modify it under
   the terms of the GNU Lesser General Public License as published by
   the Free Software Foundation, either version 3 of the License, or
   (at your option) any later version.
   
   xtb is distributed in the hope that it will be useful,
   but WITHOUT ANY WARRANTY; without even the implied warranty of
   MERCHANTABILITY or FITNESS FOR A PARTICULAR PURPOSE.  See the
   GNU Lesser General Public License for more details.
   
   Cite this work as:
   * C. Bannwarth, E. Caldeweyher, S. Ehlert, A. Hansen, P. Pracht,
     J. Seibert, S. Spicher, S. Grimme, WIREs Comput. Mol. Sci., 2020, 11,
     e01493. DOI: 10.1002/wcms.1493
   
   for GFN2-xTB:
   * C. Bannwarth, S. Ehlert and S. Grimme., J. Chem. Theory Comput., 2019,
     15, 1652-1671. DOI: 10.1021/acs.jctc.8b01176
   for GFN1-xTB:
   * S. Grimme, C. Bannwarth, P. Shushkov, J. Chem. Theory Comput., 2017,
     13, 1989-2009. DOI: 10.1021/acs.jctc.7b00118
   for GFN0-xTB:
   * P. Pracht, E. Caldeweyher, S. Ehlert, S. Grimme, ChemRxiv, 2019, preprint.
     DOI: 10.26434/chemrxiv.8326202.v1
   for GFN-FF:
   * S. Spicher and S. Grimme, Angew. Chem. Int. Ed., 2020, 59, 15665-15673.
     DOI: 10.1002/anie.202004239
   
   for ALPB and GBSA implicit solvation:
   * S. Ehlert, M. Stahn, S. Spicher, S. Grimme, J. Chem. Theory Comput.,
     2021, 17, 4250-4261. DOI: 10.1021/acs.jctc.1c00471
   
   for DFT-D4:
   * E. Caldeweyher, C. Bannwarth and S. Grimme, J. Chem. Phys., 2017,
     147, 034112. DOI: 10.1063/1.4993215
   * E. Caldeweyher, S. Ehlert, A. Hansen, H. Neugebauer, S. Spicher,
     C. Bannwarth and S. Grimme, J. Chem. Phys., 2019, 150, 154122.
     DOI: 10.1063/1.5090222
   * E. Caldeweyher, J.-M. Mewes, S. Ehlert and S. Grimme, Phys. Chem. Chem. Phys.
     2020, 22, 8499-8512. DOI: 10.1039/D0CP00502A
   
   for sTDA-xTB:
   * S. Grimme and C. Bannwarth, J. Chem. Phys., 2016, 145, 054103.
     DOI: 10.1063/1.4959605
   
   in the mass-spec context:
   * V. Asgeirsson, C. Bauer and S. Grimme, Chem. Sci., 2017, 8, 4879.
     DOI: 10.1039/c7sc00601b
   * J. Koopman and S. Grimme, ACS Omega 2019, 4, 12, 15120-15133.
     DOI: 10.1021/acsomega.9b02011
   
   for metadynamics refer to:
   * S. Grimme, J. Chem. Theory Comput., 2019, 155, 2847-2862
     DOI: 10.1021/acs.jctc.9b00143
   
   for SPH calculations refer to:
   * S. Spicher and S. Grimme, J. Chem. Theory Comput., 2021, 17, 1701-1714
     DOI: 10.1021/acs.jctc.0c01306
   
   with help from (in alphabetical order)
   P. Atkinson, C. Bannwarth, F. Bohle, G. Brandenburg, E. Caldeweyher
   M. Checinski, S. Dohm, S. Ehlert, S. Ehrlich, I. Gerasimov, C. Hölzer
   A. Katbashev, J. Koopman, C. Lavigne, S. Lehtola, F. März, M. Müller,
   F. Musil, H. Neugebauer, J. Pisarek, C. Plett, P. Pracht, F. Pultar,
   J. Seibert, P. Shushkov, S. Spicher, M. Stahn, M. Steiner, T. Strunk,
   J. Stückrath, T. Rose, and J. Unsleber
   
 * started run on 2026/04/17 at 12:14:29.369     

           -------------------------------------------------
          |                Calculation Setup                |
           -------------------------------------------------

          program call               : /usr/bin/xtb zigzag_chain12_d1.90_m1_XTB.xyz --grad -c 0 -u 0 -P 1 --namespace zigzag_chain12_d1.90_m1 --input zigzag_chain12_d1.90_m1_XTB.input.tmp --acc 0.200000
          calculation namespace      : zigzag_chain12_d1.90_m1
          coordinate file            : zigzag_chain12_d1.90_m1_XTB.xyz
          omp threads                :                     1

   ID    Z sym.   atoms
    1    5 B      1-12

molecular fragmentation (1/2 indicates fragments):
122222222222
# atoms in fragment 1/2:     1    11
 fragment masses (1/2) :       10.81      118.92
CMA distance (Bohr)    :  19.789
constraining FC (au)   :  0.0500

           -------------------------------------------------
          |                 G F N 2 - x T B                 |
           -------------------------------------------------

        Reference                      10.1021/acs.jctc.8b01176
      * Hamiltonian:
        H0-scaling (s, p, d)           1.850000    2.230000    2.230000
        zeta-weighting                 0.500000
      * Dispersion:
        s8                             2.700000
        a1                             0.520000
        a2                             5.000000
        s9                             5.000000
      * Repulsion:
        kExp                           1.500000    1.000000
        rExp                           1.000000
      * Coulomb:
        alpha                          2.000000
        third order                    shell-resolved
        anisotropic                    true
        a3                             3.000000
        a5                             4.000000
        cn-shift                       1.200000
        cn-exp                         4.000000
        max-rad                        5.000000

q/qsh data taken from xtbrestart
CAMM data taken from xtbrestart

          ...................................................
          :                      SETUP                      :
          :.................................................:
          :  # basis functions                  48          :
          :  # atomic orbitals                  48          :
          :  # shells                           24          :
          :  # electrons                        36          :
          :  max. iterations                   250          :
          :  Hamiltonian                  GFN2-xTB          :
          :  restarted?                       true          :
          :  GBSA solvation                  false          :
          :  PC potential                    false          :
          :  electronic temp.          300.0000000     K    :
          :  accuracy                    0.2000000          :
          :  -> integral cutoff          0.3198970E+02      :
          :  -> integral neglect         0.2000000E-08      :
          :  -> SCF convergence          0.2000000E-06 Eh   :
          :  -> wf. convergence          0.2000000E-04 e    :
          :  Broyden damping             0.4000000          :
          ...................................................

 iter      E             dE          RMSdq      gap      omega  full diag
   1    -12.8273625 -0.128274E+02  0.205E+00    0.05       0.0  T
   2    -11.5211426  0.130622E+01  0.583E+00    0.06       1.0  T
   3    -11.2611210  0.260022E+00  0.649E+00    0.13       1.0  T
   4    -12.3560051 -0.109488E+01  0.450E+00    0.14       1.0  T
   5    -12.6063131 -0.250308E+00  0.325E+00    0.10       1.0  T
   6    -11.3721696  0.123414E+01  0.611E+00    0.03       1.0  T
   7    -10.4014483  0.970721E+00  0.794E+00    0.04       1.0  T
   8    -11.5798310 -0.117838E+01  0.588E+00    0.12       1.0  T
   9    -11.5406423  0.391887E-01  0.542E+00    0.05       1.0  T
  10    -12.5374828 -0.996840E+00  0.320E+00    0.10       1.0  T
  11    -12.6567849 -0.119302E+00  0.219E+00    0.04       1.0  T
  12    -12.7524814 -0.956966E-01  0.186E+00    0.07       1.0  T
  13    -12.7935205 -0.410391E-01  0.120E+00    0.05       1.0  T
  14    -12.8106262 -0.171057E-01  0.927E-01    0.04       1.0  T
  15    -12.8051406  0.548557E-02  0.954E-01    0.05       1.0  T
  16    -12.8216109 -0.164702E-01  0.786E-01    0.04       1.0  T
  17    -12.8247915 -0.318065E-02  0.702E-01    0.04       1.0  T
  18    -12.8238190  0.972476E-03  0.682E-01    0.04       1.0  T
  19    -12.8249524 -0.113338E-02  0.652E-01    0.04       1.0  T
  20    -12.8253517 -0.399290E-03  0.563E-01    0.04       1.0  T
  21    -12.8211652  0.418655E-02  0.696E-01    0.05       1.0  T
  22    -12.8268886 -0.572348E-02  0.553E-01    0.05       1.0  T
  23    -12.8303037 -0.341509E-02  0.448E-01    0.05       1.0  T
  24    -12.8283135  0.199026E-02  0.534E-01    0.05       1.0  T
  25    -12.8328004 -0.448697E-02  0.257E-01    0.04       1.0  T
  26    -12.8333631 -0.562704E-03  0.174E-01    0.04       1.0  T
  27    -12.8335565 -0.193414E-03  0.128E-01    0.04       1.0  T
  28    -12.8335886 -0.320155E-04  0.993E-02    0.04       1.0  T
  29    -12.8336458 -0.572458E-04  0.630E-02    0.04       1.0  T
  30    -12.8335703  0.755478E-04  0.785E-02    0.04       1.0  T
  31    -12.8335989 -0.286337E-04  0.666E-02    0.04       1.0  T
  32    -12.8336752 -0.763448E-04  0.268E-02    0.04       1.1  T
  33    -12.8336776 -0.237410E-05  0.210E-02    0.04       1.4  T
  34    -12.8336643  0.133559E-04  0.282E-02    0.04       1.0  T
  35    -12.8336754 -0.111545E-04  0.198E-02    0.04       1.5  T
  36    -12.8336818 -0.641432E-05  0.117E-02    0.04       2.5  T
  37    -12.8336822 -0.329871E-06  0.922E-03    0.04       3.1  T
  38    -12.8336824 -0.200141E-06  0.737E-03    0.04       3.9  T
  39    -12.8336828 -0.402611E-06  0.467E-03    0.04       6.2  T
  40    -12.8336828 -0.732413E-07  0.375E-03    0.04       7.7  T
  41    -12.8336829 -0.828418E-07  0.241E-03    0.04      12.0  T
  42    -12.8336830 -0.500656E-07  0.126E-03    0.04      22.9  T
  43    -12.8336830 -0.139360E-07  0.586E-04    0.04      49.3  T
  44    -12.8336830 -0.351277E-08  0.453E-04    0.04      63.7  T
  45    -12.8336830 -0.110796E-08  0.262E-04    0.04     110.0  T
  46    -12.8336830  0.968772E-10  0.221E-04    0.04     130.5  T
  47    -12.8336830 -0.220489E-09  0.127E-04    0.04     226.6  T
  48    -12.8336830 -0.122578E-09  0.842E-05    0.04     342.8  T

   *** convergence criteria satisfied after 48 iterations ***

         #    Occupation            Energy/Eh            Energy/eV
      -------------------------------------------------------------
         1        2.0000           -0.3722420             -10.1292
       ...           ...                  ...                  ...
        12        2.0000           -0.2694607              -7.3324
        13        2.0000           -0.2667858              -7.2596
        14        2.0000           -0.2663774              -7.2485
        15        2.0000           -0.2609039              -7.0996
        16        1.9955           -0.2558296              -6.9615
        17        1.9687           -0.2539794              -6.9111
        18        1.3869           -0.2508210              -6.8252 (HOMO)
        19        0.6333           -0.2493146              -6.7842 (LUMO)
        20        0.0153           -0.2454220              -6.6783
        21        0.0004           -0.2419655              -6.5842
        22        0.0000           -0.2365981              -6.4382
        23                         -0.2333591              -6.3500
       ...                                ...                  ...
        48                          0.0115164               0.3134
      -------------------------------------------------------------
                  HL-Gap            0.0015063 Eh            0.0410 eV
             Fermi-level           -0.2500454 Eh           -6.8041 eV

 SCC (total)                   0 d,  0 h,  0 min,  0.047 sec
 SCC setup                      ...        0 min,  0.000 sec (  0.325%)
 Dispersion                     ...        0 min,  0.000 sec (  0.248%)
 classical contributions        ...        0 min,  0.000 sec (  0.081%)
 integral evaluation            ...        0 min,  0.002 sec (  4.881%)
 iterations                     ...        0 min,  0.040 sec ( 86.375%)
 molecular gradient             ...        0 min,  0.004 sec (  7.507%)
 printout                       ...        0 min,  0.000 sec (  0.534%)

         :::::::::::::::::::::::::::::::::::::::::::::::::::::
         ::                     SUMMARY                     ::
         :::::::::::::::::::::::::::::::::::::::::::::::::::::
         :: total energy             -12.832134775855 Eh    ::
         :: gradient norm              0.366779396098 Eh/a0 ::
         :: HOMO-LUMO gap              0.040989166496 eV    ::
         ::.................................................::
         :: SCC energy               -12.833682981543 Eh    ::
         :: -> isotropic ES            0.043090036493 Eh    ::
         :: -> anisotropic ES          0.001374093252 Eh    ::
         :: -> anisotropic XC         -0.050888877566 Eh    ::
         :: -> dispersion             -0.013406055601 Eh    ::
         :: repulsion energy           0.001776976595 Eh    ::
         :: add. restraining           0.000000000000 Eh    ::
         :: total charge               0.000000000001 e     ::
         :::::::::::::::::::::::::::::::::::::::::::::::::::::


Property printout bound to 'properties.out'

           -------------------------------------------------
          | TOTAL ENERGY              -12.832134775855 Eh   |
          | GRADIENT NORM               0.366779396098 Eh/α |
          | HOMO-LUMO GAP               0.040989166496 eV   |
           -------------------------------------------------

------------------------------------------------------------------------
 * finished run on 2026/04/17 at 12:14:29.427     
------------------------------------------------------------------------
 total:
 * wall-time:     0 d,  0 h,  0 min,  0.058 sec
 *  cpu-time:     0 d,  0 h,  0 min,  0.058 sec
 * ratio c/w:     0.998 speedup
 SCF:
 * wall-time:     0 d,  0 h,  0 min,  0.047 sec
 *  cpu-time:     0 d,  0 h,  0 min,  0.047 sec
 * ratio c/w:     0.998 speedup


-------------------------   --------------------
FINAL SINGLE POINT ENERGY       -12.832134775850
-------------------------   --------------------


-------------
DIPOLE MOMENT
-------------
                                X             Y             Z
Total Dipole Moment    :      0.05300       0.00700       0.00000
                        -----------------------------------------
Magnitude (a.u.)       :      0.05346
Magnitude (Debye)      :      0.13589


------------------
CARTESIAN GRADIENT
------------------

   1   B   :   -0.059743927    0.046089764   -0.000000000
   2   B   :    0.005165553   -0.102440555    0.000000000
   3   B   :   -0.000424140    0.111705898    0.000000000
   4   B   :    0.006119214   -0.112515735   -0.000000000
   5   B   :    0.000816766    0.113028751    0.000000000
   6   B   :    0.000047391   -0.110979422   -0.000000000
   7   B   :    0.001312045    0.112374550   -0.000000000
   8   B   :   -0.003330590   -0.113822064    0.000000000
   9   B   :   -0.002619121    0.114554676   -0.000000000
  10   B   :   -0.004407254   -0.112137014    0.000000000
  11   B   :   -0.000256946    0.104443277    0.000000000
  12   B   :    0.057321008   -0.050302126   -0.000000000

Difference to translation invariance:
           :   -0.0000000000   -0.0000000000    0.0000000000

Difference to rotation invariance:
           :   -0.0000000000   -0.0000000000   -0.0000000433

Norm of the Cartesian gradient     ...    0.3667793961
RMS gradient                       ...    0.0611298993
MAX gradient                       ...    0.1145546756
------------------------------------------------------------------------------
                         ORCA GEOMETRY RELAXATION STEP
------------------------------------------------------------------------------

Reading the OPT-File                    .... done
Getting information on internals        .... done
Copying old internal coords+grads       .... done
Making the new internal coordinates     .... (2022 redundants) done
Validating the new internal coordinates .... (2022 redundants) done
Calculating the B-matrix                .... done
Calculating the G,G- and P matrices     .... done
Transforming gradient to internals      .... done
Projecting the internal gradient        .... done
Number of atoms                         ....  12
Number of internal coordinates          ....  31
Current Energy                          ....   -12.832134776 Eh
Current gradient norm                   ....     0.366779396 Eh/bohr
Maximum allowed component of the step   ....  0.300
Current trust radius                    ....  0.300
Updating the Hessian (BFGS)             .... done
Forming the augmented Hessian           .... done
Diagonalizing the augmented Hessian     .... done
Last element of RFO vector              ....  0.747294456
Lowest eigenvalues of augmented Hessian:
 -0.232739346  0.010000000  0.010000000  0.010000000  0.010000000
Length of the computed step             ....  0.889198402
Warning: the length of the step is outside the trust region - taking restricted step instead
The input lambda is                     ....     0.009000
   iter:   5  x=   -0.095150  g=  131.695020 f(x)=     6.257005
   iter:  10  x=   -0.726784  g=    0.517481 f(x)=     0.076327
   iter:  15  x=   -0.810610  g=    0.205559 f(x)=     0.000000
The output lambda is                    ....    -0.810610 (16 iterations)
The final length of the internal step   ....  0.300000000
Converting the step to Cartesian space:
 Initial RMS(Int)=    0.0538815906
Transforming coordinates:
 Iter   0:  RMS(Cart)=    0.0901208991 RMS(Int)=    0.0530704832
 Iter   5:  RMS(Cart)=    0.0000000183 RMS(Int)=    0.0000000103
done
Storing new coordinates                 .... done
The predicted energy change is          ....    -0.075956162
Previously predicted energy change      ....    -0.071977325
Actually observed energy change         ....    -0.076774730
Ratio of predicted to observed change   ....     1.066651618
New trust radius                        ....     0.450000000

                                .--------------------.
          ----------------------|Geometry convergence|-------------------------
          Item                value                   Tolerance       Converged
          ---------------------------------------------------------------------
          Energy change      -0.0767747297            0.0000010000      NO
          RMS gradient        0.0473308367            0.0000300000      NO
          MAX gradient        0.0779338789            0.0001000000      NO
          RMS step            0.0538815906            0.0006000000      NO
          MAX step            0.0912644685            0.0010000000      NO
          -------------------------------------------------------------------------
          ........................................................
          Max(Bonds)      0.0483      Max(Angles)    3.12
          Max(Dihed)        0.00      Max(Improp)    0.00
          ---------------------------------------------------------------------

The optimization has not yet converged - more geometry cycles are needed


    ---------------------------------------------------------------------------
                         Redundant Internal Coordinates
                            (Angstroem and degrees)

        Definition                    Value    dE/dq     Step     New-Value
    ----------------------------------------------------------------------------
     1. B(B   1,B   0)                2.1541  0.069153 -0.0423    2.1119   
     2. B(B   2,B   1)                2.1526  0.071724 -0.0439    2.1087   
     3. B(B   3,B   2)                2.1540  0.070606 -0.0432    2.1108   
     4. B(B   4,B   3)                2.1560  0.067196 -0.0411    2.1149   
     5. B(B   5,B   4)                2.1562  0.065625 -0.0401    2.1161   
     6. B(B   6,B   5)                2.1569  0.064861 -0.0396    2.1173   
     7. B(B   6,B   0)               10.4825  0.007543 -0.0056   10.4769   
     8. B(B   7,B   6)                2.1520  0.071777 -0.0445    2.1075   
     9. B(B   8,B   7)                2.1518  0.073541 -0.0456    2.1062   
    10. B(B   9,B   8)                2.1498  0.076999 -0.0477    2.1021   
    11. B(B  10,B   9)                2.1484  0.077934 -0.0483    2.1001   
    12. B(B  11,B  10)                2.1499  0.076131 -0.0472    2.1028   
    13. A(B   0,B   1,B   2)          107.62 -0.035970    2.21    109.83   
    14. A(B   1,B   2,B   3)          107.13 -0.025747    1.46    108.60   
    15. A(B   2,B   3,B   4)          108.69 -0.049811    3.00    111.69   
    16. A(B   3,B   4,B   5)          107.59 -0.036379    2.07    109.66   
    17. A(B   4,B   5,B   6)          108.75 -0.051963    3.12    111.87   
    18. A(B   5,B   6,B   7)          107.53 -0.035038    1.99    109.52   
    19. A(B   6,B   7,B   8)          107.59 -0.036408    2.07    109.66   
    20. A(B   7,B   8,B   9)          107.46 -0.033357    1.90    109.36   
    21. A(B   8,B   9,B  10)          107.13 -0.025145    1.43    108.56   
    22. A(B   9,B  10,B  11)          106.40 -0.018180    1.03    107.43   
    23. D(B   3,B   2,B   1,B   0)    180.00  0.000000   -0.00    180.00   
    24. D(B   4,B   3,B   2,B   1)    180.00  0.000000   -0.00    180.00   
    25. D(B   5,B   4,B   3,B   2)    180.00  0.000000   -0.00    180.00   
    26. D(B   6,B   5,B   4,B   3)    180.00  0.000000   -0.00    180.00   
    27. D(B   7,B   6,B   5,B   4)    180.00  0.000000   -0.00    180.00   
    28. D(B   8,B   7,B   6,B   5)    180.00  0.000000   -0.00    180.00   
    29. D(B   9,B   8,B   7,B   6)    180.00  0.000000   -0.00    180.00   
    30. D(B  10,B   9,B   8,B   7)    180.00  0.000000   -0.00    180.00   
    31. D(B  11,B  10,B   9,B   8)    180.00  0.000000   -0.00    180.00   
    ----------------------------------------------------------------------------

Geometry step timings:
Preparation and reading OPT file:      0.000 s ( 2.266 %)
Internal coordinates            :      0.000 s ( 1.535 %)
B/P matrices and projection     :      0.000 s (20.395 %)
Hessian update/contruction      :      0.000 s (22.368 %)
Making the step                 :      0.000 s (23.392 %)
Converting the step to Cartesian:      0.000 s ( 2.558 %)
Storing new data                :      0.000 s ( 2.558 %)
Checking convergence            :      0.000 s ( 4.459 %)
Final printing                  :      0.000 s (20.395 %)
Total time                      :      0.001 s

Time for energy+gradient        :      0.068 s
Time for complete geometry iter :      0.070 s

         *************************************************************
         *                GEOMETRY OPTIMIZATION CYCLE   3            *
         *************************************************************
---------------------------------
CARTESIAN COORDINATES (ANGSTROEM)
---------------------------------
  B    -9.548366    0.366989    0.000000
  B    -7.727940   -0.705521   -0.000000
  B    -6.096484    0.632074    0.000000
  B    -4.306314   -0.488241   -0.000000
  B    -2.593929    0.754700    0.000000
  B    -0.846091   -0.439943    0.000000
  B     0.921053    0.728203   -0.000000
  B     2.603851   -0.540577    0.000000
  B     4.363702    0.616601   -0.000000
  B     6.035529   -0.657656    0.000000
  B     7.774062    0.520408   -0.000000
  B     9.420928   -0.787036    0.000000

----------------------------
CARTESIAN COORDINATES (A.U.)
----------------------------
  NO LB    ZA    FRAG    MASS        X           Y           Z
   0 B   5.0000    0    10.810  -18.043798    0.693509    0.000000
   1 B   5.0000    0    10.810  -14.603690   -1.333242   -0.000000
   2 B   5.0000    0    10.810  -11.520686    1.194446    0.000000
   3 B   5.0000    0    10.810   -8.137755   -0.922642   -0.000000
   4 B   5.0000    0    10.810   -4.901815    1.426176    0.000000
   5 B   5.0000    0    10.810   -1.598881   -0.831373    0.000000
   6 B   5.0000    0    10.810    1.740538    1.376105   -0.000000
   7 B   5.0000    0    10.810    4.920566   -1.021542    0.000000
   8 B   5.0000    0    10.810    8.246202    1.165206   -0.000000
   9 B   5.0000    0    10.810   11.405496   -1.242789    0.000000
  10 B   5.0000    0    10.810   14.690847    0.983429   -0.000000
  11 B   5.0000    0    10.810   17.802973   -1.487283    0.000000

      -----------------------------------------------------------      
     |                   =====================                   |     
     |                           x T B                           |     
     |                   =====================                   |     
     |                         S. Grimme                         |     
     |          Mulliken Center for Theoretical Chemistry        |     
     |                    University of Bonn                     |     
      -----------------------------------------------------------      

   * xtb version 6.6.1 (unknown) compiled by 'builduser@buildhost' on 2023-08-07

   xtb is free software: you can redistribute it and/or modify it under
   the terms of the GNU Lesser General Public License as published by
   the Free Software Foundation, either version 3 of the License, or
   (at your option) any later version.
   
   xtb is distributed in the hope that it will be useful,
   but WITHOUT ANY WARRANTY; without even the implied warranty of
   MERCHANTABILITY or FITNESS FOR A PARTICULAR PURPOSE.  See the
   GNU Lesser General Public License for more details.
   
   Cite this work as:
   * C. Bannwarth, E. Caldeweyher, S. Ehlert, A. Hansen, P. Pracht,
     J. Seibert, S. Spicher, S. Grimme, WIREs Comput. Mol. Sci., 2020, 11,
     e01493. DOI: 10.1002/wcms.1493
   
   for GFN2-xTB:
   * C. Bannwarth, S. Ehlert and S. Grimme., J. Chem. Theory Comput., 2019,
     15, 1652-1671. DOI: 10.1021/acs.jctc.8b01176
   for GFN1-xTB:
   * S. Grimme, C. Bannwarth, P. Shushkov, J. Chem. Theory Comput., 2017,
     13, 1989-2009. DOI: 10.1021/acs.jctc.7b00118
   for GFN0-xTB:
   * P. Pracht, E. Caldeweyher, S. Ehlert, S. Grimme, ChemRxiv, 2019, preprint.
     DOI: 10.26434/chemrxiv.8326202.v1
   for GFN-FF:
   * S. Spicher and S. Grimme, Angew. Chem. Int. Ed., 2020, 59, 15665-15673.
     DOI: 10.1002/anie.202004239
   
   for ALPB and GBSA implicit solvation:
   * S. Ehlert, M. Stahn, S. Spicher, S. Grimme, J. Chem. Theory Comput.,
     2021, 17, 4250-4261. DOI: 10.1021/acs.jctc.1c00471
   
   for DFT-D4:
   * E. Caldeweyher, C. Bannwarth and S. Grimme, J. Chem. Phys., 2017,
     147, 034112. DOI: 10.1063/1.4993215
   * E. Caldeweyher, S. Ehlert, A. Hansen, H. Neugebauer, S. Spicher,
     C. Bannwarth and S. Grimme, J. Chem. Phys., 2019, 150, 154122.
     DOI: 10.1063/1.5090222
   * E. Caldeweyher, J.-M. Mewes, S. Ehlert and S. Grimme, Phys. Chem. Chem. Phys.
     2020, 22, 8499-8512. DOI: 10.1039/D0CP00502A
   
   for sTDA-xTB:
   * S. Grimme and C. Bannwarth, J. Chem. Phys., 2016, 145, 054103.
     DOI: 10.1063/1.4959605
   
   in the mass-spec context:
   * V. Asgeirsson, C. Bauer and S. Grimme, Chem. Sci., 2017, 8, 4879.
     DOI: 10.1039/c7sc00601b
   * J. Koopman and S. Grimme, ACS Omega 2019, 4, 12, 15120-15133.
     DOI: 10.1021/acsomega.9b02011
   
   for metadynamics refer to:
   * S. Grimme, J. Chem. Theory Comput., 2019, 155, 2847-2862
     DOI: 10.1021/acs.jctc.9b00143
   
   for SPH calculations refer to:
   * S. Spicher and S. Grimme, J. Chem. Theory Comput., 2021, 17, 1701-1714
     DOI: 10.1021/acs.jctc.0c01306
   
   with help from (in alphabetical order)
   P. Atkinson, C. Bannwarth, F. Bohle, G. Brandenburg, E. Caldeweyher
   M. Checinski, S. Dohm, S. Ehlert, S. Ehrlich, I. Gerasimov, C. Hölzer
   A. Katbashev, J. Koopman, C. Lavigne, S. Lehtola, F. März, M. Müller,
   F. Musil, H. Neugebauer, J. Pisarek, C. Plett, P. Pracht, F. Pultar,
   J. Seibert, P. Shushkov, S. Spicher, M. Stahn, M. Steiner, T. Strunk,
   J. Stückrath, T. Rose, and J. Unsleber
   
 * started run on 2026/04/17 at 12:14:29.437     

           -------------------------------------------------
          |                Calculation Setup                |
           -------------------------------------------------

          program call               : /usr/bin/xtb zigzag_chain12_d1.90_m1_XTB.xyz --grad -c 0 -u 0 -P 1 --namespace zigzag_chain12_d1.90_m1 --input zigzag_chain12_d1.90_m1_XTB.input.tmp --acc 0.200000
          calculation namespace      : zigzag_chain12_d1.90_m1
          coordinate file            : zigzag_chain12_d1.90_m1_XTB.xyz
          omp threads                :                     1

   ID    Z sym.   atoms
    1    5 B      1-12

molecular fragmentation (1/2 indicates fragments):
122222222222
# atoms in fragment 1/2:     1    11
 fragment masses (1/2) :       10.81      118.92
CMA distance (Bohr)    :  19.699
constraining FC (au)   :  0.0500

           -------------------------------------------------
          |                 G F N 2 - x T B                 |
           -------------------------------------------------

        Reference                      10.1021/acs.jctc.8b01176
      * Hamiltonian:
        H0-scaling (s, p, d)           1.850000    2.230000    2.230000
        zeta-weighting                 0.500000
      * Dispersion:
        s8                             2.700000
        a1                             0.520000
        a2                             5.000000
        s9                             5.000000
      * Repulsion:
        kExp                           1.500000    1.000000
        rExp                           1.000000
      * Coulomb:
        alpha                          2.000000
        third order                    shell-resolved
        anisotropic                    true
        a3                             3.000000
        a5                             4.000000
        cn-shift                       1.200000
        cn-exp                         4.000000
        max-rad                        5.000000

q/qsh data taken from xtbrestart
CAMM data taken from xtbrestart

          ...................................................
          :                      SETUP                      :
          :.................................................:
          :  # basis functions                  48          :
          :  # atomic orbitals                  48          :
          :  # shells                           24          :
          :  # electrons                        36          :
          :  max. iterations                   250          :
          :  Hamiltonian                  GFN2-xTB          :
          :  restarted?                       true          :
          :  GBSA solvation                  false          :
          :  PC potential                    false          :
          :  electronic temp.          300.0000000     K    :
          :  accuracy                    0.2000000          :
          :  -> integral cutoff          0.3198970E+02      :
          :  -> integral neglect         0.2000000E-08      :
          :  -> SCF convergence          0.2000000E-06 Eh   :
          :  -> wf. convergence          0.2000000E-04 e    :
          :  Broyden damping             0.4000000          :
          ...................................................

 iter      E             dE          RMSdq      gap      omega  full diag
   1    -12.9115024 -0.129115E+02  0.160E+00    0.13       0.0  T
   2    -11.8955499  0.101595E+01  0.508E+00    0.13       1.0  T
   3    -11.7230513  0.172499E+00  0.561E+00    0.17       1.0  T
   4    -12.3929749 -0.669924E+00  0.426E+00    0.19       1.0  T
   5    -12.4516277 -0.586528E-01  0.402E+00    0.17       1.0  T
   6    -12.0586282  0.393000E+00  0.491E+00    0.13       1.0  T
   7    -12.1432560 -0.846278E-01  0.484E+00    0.11       1.0  T
   8    -12.7760032 -0.632747E+00  0.217E+00    0.12       1.0  T
   9    -11.9177347  0.858269E+00  0.476E+00    0.09       1.0  T
  10    -12.6945950 -0.776860E+00  0.263E+00    0.14       1.0  T
  11    -12.6970144 -0.241936E-02  0.240E+00    0.12       1.0  T
  12    -12.7780867 -0.810723E-01  0.206E+00    0.14       1.0  T
  13    -12.8143941 -0.363074E-01  0.174E+00    0.14       1.0  T
  14    -12.8899788 -0.755847E-01  0.102E+00    0.12       1.0  T
  15    -12.9071713 -0.171925E-01  0.645E-01    0.12       1.0  T
  16    -12.9081316 -0.960264E-03  0.652E-01    0.12       1.0  T
  17    -12.9091383 -0.100676E-02  0.635E-01    0.13       1.0  T
  18    -12.9077198  0.141858E-02  0.674E-01    0.13       1.0  T
[...]
      * Coulomb:
        alpha                          2.000000
        third order                    shell-resolved
        anisotropic                    true
        a3                             3.000000
        a5                             4.000000
        cn-shift                       1.200000
        cn-exp                         4.000000
        max-rad                        5.000000

q/qsh data taken from xtbrestart
CAMM data taken from xtbrestart

          ...................................................
          :                      SETUP                      :
          :.................................................:
          :  # basis functions                  48          :
          :  # atomic orbitals                  48          :
          :  # shells                           24          :
          :  # electrons                        36          :
          :  max. iterations                   250          :
          :  Hamiltonian                  GFN2-xTB          :
          :  restarted?                       true          :
          :  GBSA solvation                  false          :
          :  PC potential                    false          :
          :  electronic temp.          300.0000000     K    :
          :  accuracy                    0.2000000          :
          :  -> integral cutoff          0.3198970E+02      :
          :  -> integral neglect         0.2000000E-08      :
          :  -> SCF convergence          0.2000000E-06 Eh   :
          :  -> wf. convergence          0.2000000E-04 e    :
          :  Broyden damping             0.4000000          :
          ...................................................

 iter      E             dE          RMSdq      gap      omega  full diag
   1    -14.3529950 -0.143530E+02  0.827E-02    0.00       0.0  T
   2    -14.3529834  0.115948E-04  0.540E-02    0.00       1.0  T
   3    -14.3490599  0.392346E-02  0.332E-01    0.00       1.0  T
   4    -14.3529551 -0.389520E-02  0.278E-02    0.00       1.0  T
   5    -14.3529896 -0.344091E-04  0.119E-02    0.00       2.4  T
   6    -14.3529941 -0.449530E-05  0.670E-03    0.00       4.3  T
   7    -14.3529923  0.180103E-05  0.930E-03    0.00       3.1  T
   8    -14.3529944 -0.213265E-05  0.522E-03    0.00       5.5  T
   9    -14.3529944 -0.476378E-07  0.502E-03    0.00       5.8  T
  10    -14.3529952 -0.771841E-06  0.121E-03    0.00      23.9  T
  11    -14.3529952 -0.428078E-07  0.391E-04    0.00      73.8  T
  12    -14.3529952 -0.274302E-08  0.243E-04    0.00     119.0  T
  13    -14.3529952 -0.311280E-09  0.184E-04    0.00     156.6  T
  14    -14.3529952 -0.112572E-08  0.747E-05    0.00     386.4  T

   *** convergence criteria satisfied after 14 iterations ***

         #    Occupation            Energy/Eh            Energy/eV
      -------------------------------------------------------------
         1        2.0000           -0.3917282             -10.6595
       ...           ...                  ...                  ...
        12        2.0000           -0.2769507              -7.5362
        13        2.0000           -0.2769498              -7.5362
        14        2.0000           -0.2745048              -7.4697
        15        2.0000           -0.2745041              -7.4696
        16        2.0000           -0.2622360              -7.1358
        17        2.0000           -0.2622353              -7.1358
        18        1.0003           -0.2467751              -6.7151 (HOMO)
        19        0.9997           -0.2467738              -6.7151 (LUMO)
        20                         -0.2306972              -6.2776
        21                         -0.2306437              -6.2761
        22                         -0.2231317              -6.0717
        23                         -0.2231305              -6.0717
       ...                                ...                  ...
        48                          1.4430478              39.2673
      -------------------------------------------------------------
                  HL-Gap            0.0000013 Eh            0.0000 eV
             Fermi-level           -0.2467744 Eh           -6.7151 eV

 SCC (total)                   0 d,  0 h,  0 min,  0.024 sec
 SCC setup                      ...        0 min,  0.000 sec (  0.669%)
 Dispersion                     ...        0 min,  0.000 sec (  0.527%)
 classical contributions        ...        0 min,  0.000 sec (  0.147%)
 integral evaluation            ...        0 min,  0.002 sec (  8.555%)
 iterations                     ...        0 min,  0.015 sec ( 65.564%)
 molecular gradient             ...        0 min,  0.005 sec ( 22.784%)
 printout                       ...        0 min,  0.000 sec (  1.633%)

         :::::::::::::::::::::::::::::::::::::::::::::::::::::
         ::                     SUMMARY                     ::
         :::::::::::::::::::::::::::::::::::::::::::::::::::::
         :: total energy             -14.061973142300 Eh    ::
         :: gradient norm              0.000571603774 Eh/a0 ::
         :: HOMO-LUMO gap              0.000035418526 eV    ::
         ::.................................................::
         :: SCC energy               -14.352995249331 Eh    ::
         :: -> isotropic ES            0.112116142766 Eh    ::
         :: -> anisotropic ES          0.000566376409 Eh    ::
         :: -> anisotropic XC         -0.049615815198 Eh    ::
         :: -> dispersion             -0.009484800526 Eh    ::
         :: repulsion energy           0.291237722168 Eh    ::
         :: add. restraining           0.000000000000 Eh    ::
         :: total charge              -0.000000000000 e     ::
         :::::::::::::::::::::::::::::::::::::::::::::::::::::


Property printout bound to 'properties.out'

           -------------------------------------------------
          | TOTAL ENERGY              -14.061973142300 Eh   |
          | GRADIENT NORM               0.000571603774 Eh/α |
          | HOMO-LUMO GAP               0.000035418526 eV   |
           -------------------------------------------------

------------------------------------------------------------------------
 * finished run on 2026/04/17 at 12:14:32.529     
------------------------------------------------------------------------
 total:
 * wall-time:     0 d,  0 h,  0 min,  0.037 sec
 *  cpu-time:     0 d,  0 h,  0 min,  0.036 sec
 * ratio c/w:     0.997 speedup
 SCF:
 * wall-time:     0 d,  0 h,  0 min,  0.024 sec
 *  cpu-time:     0 d,  0 h,  0 min,  0.024 sec
 * ratio c/w:     1.000 speedup


-------------------------   --------------------
FINAL SINGLE POINT ENERGY       -14.061973142300
-------------------------   --------------------


-------------
DIPOLE MOMENT
-------------
                                X             Y             Z
Total Dipole Moment    :     -0.00000      -0.02500       0.00000
                        -----------------------------------------
Magnitude (a.u.)       :      0.02500
Magnitude (Debye)      :      0.06354


------------------
CARTESIAN GRADIENT
------------------

   1   B   :    0.000100015    0.000003341   -0.000000067
   2   B   :   -0.000139586    0.000058052   -0.000000254
   3   B   :   -0.000019445   -0.000158977    0.000000697
   4   B   :    0.000140993    0.000061160   -0.000000564
   5   B   :   -0.000061262    0.000091848    0.000001210
   6   B   :   -0.000115223   -0.000007592   -0.000000551
   7   B   :    0.000097432   -0.000098387   -0.000000182
   8   B   :    0.000013377   -0.000034205   -0.000002187
   9   B   :    0.000077178    0.000154071    0.000001047
  10   B   :    0.000223182   -0.000071538    0.000003869
  11   B   :   -0.000335053    0.000026323   -0.000004910
  12   B   :    0.000018394   -0.000024096    0.000001892

Difference to translation invariance:
           :    0.0000000000    0.0000000000   -0.0000000000

Difference to rotation invariance:
           :    0.0000000000    0.0000000013   -0.0000000091

Norm of the Cartesian gradient     ...    0.0005716038
RMS gradient                       ...    0.0000952673
MAX gradient                       ...    0.0003350534
------------------------------------------------------------------------------
                         ORCA GEOMETRY RELAXATION STEP
------------------------------------------------------------------------------

Reading the OPT-File                    .... done
Getting information on internals        .... done
Copying old internal coords+grads       .... done
Making the new internal coordinates     .... (2022 redundants) done
Validating the new internal coordinates .... (2022 redundants) done
Calculating the B-matrix                .... done
Calculating the G,G- and P matrices     .... done
Transforming gradient to internals      .... done
Projecting the internal gradient        .... done
Number of atoms                         ....  12
Number of internal coordinates          ....  31
Current Energy                          ....   -14.061973142 Eh
Current gradient norm                   ....     0.000571604 Eh/bohr
Maximum allowed component of the step   ....  0.300
Current trust radius                    ....  0.100
Updating the Hessian (BFGS)             .... done
Forming the augmented Hessian           .... done
Diagonalizing the augmented Hessian     .... done
Last element of RFO vector              ....  0.999979732
Lowest eigenvalues of augmented Hessian:
 -0.000000802  0.008121379  0.016581463  0.017638380  0.195728375
Length of the computed step             ....  0.006366886
The final length of the internal step   ....  0.006366886
Converting the step to Cartesian space:
 Initial RMS(Int)=    0.0011435265
Transforming coordinates:
 Iter   0:  RMS(Cart)=    0.0020778485 RMS(Int)=    0.0004099619
 Iter   5:  RMS(Cart)=    0.0002295172 RMS(Int)=    0.0000453130
 Iter  10:  RMS(Cart)=    0.0000255528 RMS(Int)=    0.0000051772
 Iter  15:  RMS(Cart)=    0.0000028653 RMS(Int)=    0.0000006032
 Iter  20:  RMS(Cart)=    0.0000003234 RMS(Int)=    0.0000000712
done
Storing new coordinates                 .... done
The predicted energy change is          ....    -0.000000401
Previously predicted energy change      ....    -0.000000568
Actually observed energy change         ....    -0.000002568
Ratio of predicted to observed change   ....     4.524156571
New trust radius                        ....     0.100000000

                                .--------------------.
          ----------------------|Geometry convergence|-------------------------
          Item                value                   Tolerance       Converged
          ---------------------------------------------------------------------
          Energy change      -0.0000025677            0.0000010000      NO
          RMS gradient        0.0000728111            0.0000300000      NO
          MAX gradient        0.0003165703            0.0001000000      NO
          RMS step            0.0011435265            0.0006000000      NO
          MAX step            0.0042051061            0.0010000000      NO
          -------------------------------------------------------------------------
          ........................................................
          Max(Bonds)      0.0001      Max(Angles)    0.24
          Max(Dihed)        0.00      Max(Improp)    0.00
          ---------------------------------------------------------------------

The optimization has not yet converged - more geometry cycles are needed


    ---------------------------------------------------------------------------
                         Redundant Internal Coordinates
                            (Angstroem and degrees)

        Definition                    Value    dE/dq     Step     New-Value
    ----------------------------------------------------------------------------
     1. B(B   1,B   0)                1.4303 -0.000100 -0.0000    1.4303   
     2. B(B   2,B   1)                1.5087  0.000040  0.0000    1.5087   
     3. B(B   3,B   2)                1.5282  0.000059  0.0001    1.5282   
     4. B(B   4,B   3)                1.5142 -0.000082 -0.0000    1.5141   
     5. B(B   5,B   4)                1.5166 -0.000020 -0.0000    1.5166   
     6. B(B   6,B   5)                1.5228  0.000095  0.0001    1.5229   
     7. B(B   7,B   6)                1.5166 -0.000004 -0.0000    1.5166   
     8. B(B   8,B   7)                1.5143 -0.000018  0.0000    1.5143   
     9. B(B   9,B   8)                1.5280 -0.000092 -0.0000    1.5279   
    10. B(B  10,B   9)                1.5082 -0.000317 -0.0001    1.5081   
    11. B(B  11,B  10)                1.4304  0.000019  0.0000    1.4304   
    12. L(B   0,B   1,B   2, 2)       180.00 -0.000000   -0.00    180.00   
    13. L(B   0,B   1,B   2, 1)       179.99 -0.000004   -0.03    179.96   
    14. L(B   1,B   2,B   3, 1)       179.68 -0.000065    0.14    179.82   
    15. L(B   1,B   2,B   3, 2)       180.00 -0.000000    0.00    180.00   
    16. L(B   2,B   3,B   4, 2)       180.00  0.000000    0.00    180.00   
    17. L(B   2,B   3,B   4, 1)       180.19  0.000033   -0.02    180.17   
    18. L(B   3,B   4,B   5, 1)       180.52  0.000069   -0.14    180.38   
    19. L(B   3,B   4,B   5, 2)       180.00 -0.000000    0.00    180.00   
    20. L(B   4,B   5,B   6, 2)       180.01  0.000001   -0.00    180.01   
    21. L(B   4,B   5,B   6, 1)       180.10  0.000013   -0.00    180.09   
    22. L(B   5,B   6,B   7, 2)       180.01  0.000001   -0.00    180.01   
    23. L(B   5,B   6,B   7, 1)       179.77 -0.000033    0.05    179.82   
    24. L(B   6,B   7,B   8, 2)       180.01  0.000002   -0.00    180.01   
    25. L(B   6,B   7,B   8, 1)       180.17  0.000018    0.06    180.23   
    26. L(B   7,B   8,B   9, 1)       180.64  0.000103   -0.24    180.40   
    27. L(B   7,B   8,B   9, 2)       180.00 -0.000000    0.00    180.00   
    28. L(B   8,B   9,B  10, 2)       179.99 -0.000001    0.00    180.00   
    29. L(B   8,B   9,B  10, 1)       180.27  0.000031   -0.11    180.15   
    30. L(B   9,B  10,B  11, 2)       180.01  0.000002   -0.00    180.01   
    31. L(B   9,B  10,B  11, 1)       180.14  0.000023   -0.12    180.02   
    ----------------------------------------------------------------------------

Geometry step timings:
Preparation and reading OPT file:      0.000 s ( 1.916 %)
Internal coordinates            :      0.000 s ( 1.861 %)
B/P matrices and projection     :      0.000 s (22.332 %)
Hessian update/contruction      :      0.000 s (17.679 %)
Making the step                 :      0.000 s (12.644 %)
Converting the step to Cartesian:      0.000 s (10.837 %)
Storing new data                :      0.000 s ( 2.573 %)
Checking convergence            :      0.000 s (11.440 %)
Final printing                  :      0.000 s (18.610 %)
Total time                      :      0.002 s

Time for energy+gradient        :      0.059 s
Time for complete geometry iter :      0.062 s




    ----------------------------------------------------------------------------
                                  WARNING !!!
       The optimization did not converge but reached the maximum number of
       optimization cycles.
       Please check your results very carefully.
    ----------------------------------------------------------------------------



--------------------------------
SUGGESTED CITATIONS FOR THIS RUN
--------------------------------

Below you find a list of papers that are relevant to this ORCA run
We neither can nor want to force you to cite these papers, but we appreciate if you do
You receive ORCA, which is the product of decades of hard work by many enthusiastic individuals, for free
The only thing we kindly ask in return is that you cite our papers,
We deeply appreciate it, if you show your appreciation for ORCA by not just citing the generic ORCA reference.

Please note that relegating all ORCA citations to the supporting information does *not* help us.
SI sections are not indexed - citations you put there will not count into any citation statistics
But we need these citations in order to attract the funding resources that allow us to do what we are doing

Therefore, if you are a happy ORCA user, please consider citing a few of the papers listed below in the main body of your paper

In addition to the list printed below, the program has created the file zigzag_chain12_d1.90_m1.bibtex that contains the list in bibtex format
You can import this file easily into all common literature databanks and citation aid programs

It goes without saying that in many instances, there are alternative algorithms to achieve similar
results as the ones you have gotten from ORCA. It is, of course, also the case that in some instances
ORCA just re-implements algorithms worked out by others. We are fully aware of that and we are also
fully appreciative of our colleagues work. Hence this citation list should not be read as indicating
that the listed papers, which are focused on our own work, are the only ones worth citing. It simply
meant to make it easier for users to cite ORCA specific papers. It is not a substitute for doing your
own literature research and citing the relevant literature in a scientifically appropriate manner.

List of essential papers. We consider these as the minimum necessary citations

  1. Bannwarth, C.; Ehlert, S.; Grimme, S.
     GFN2-xTB—An Accurate and Broadly Parametrized Self-Consistent Tight-Binding Quantum Chemical Method with Multipole Electrostatics and Density-Dependent Dispersion Contributions
     J. Chem. Theory Comput. 2019 15(3), 1652-1671
     doi.org/10.1021/acs.jctc.8b01176
  2. Neese, F.
     Software update: the ORCA program system, version 6.0
     WIRES Comput. Molec. Sci. 2025 15(1), e70019
     doi.org/10.1002/wcms.70019

List of papers to cite with high priority. The work reported in these papers was absolutely
necessary for this run to complete.
Our perspective: the developers of density functionals and basis sets usually get cited in chemistry papers
Good! But without the algorithms to do something with them, the functionals or basis sets would not do anything.
Hence, in our opinion, the algorithm design and method developments papers are equally worthy of getting cited

  1. Bannwarth, C.; Caldeweyher, E.; Ehlert, S.; Hansen, A.; Pracht, P.; Seibert, J.; Spicher, S.; Grimme, S.
     Extended tight-binding quantum chemistry methods
     WIRES Comput. Molec. Sci. 2020 11(2), e1493
     doi.org/10.1002/wcms.1493

List of suggested additional citations. These are papers that are important in the 'surrounding' of 
of this run, or papers that preceded the highly important papers. If you like your results we are grateful for a citation.

  1. Neese, F.
     The ORCA program system
     WIRES Comput. Molec. Sci. 2012 2(1), 73-78
     doi.org/10.1002/wcms.81
  2. Neese, F.
     Software update: the ORCA program system, version 4.0
     WIRES Comput. Molec. Sci. 2018 8(1), 1-6
     doi.org/10.1002/wcms.1327
  3. Neese, F.; Wennmohs, F.; Becker, U.; Riplinger, C.
     The ORCA quantum chemistry program package
     J. Chem. Phys. 2020 152(22), 224108
     doi.org/10.1063/5.0004608
  4. Neese, F.
     Software update: The ORCA program system—Version 5.0
     WIRES Comput. Molec. Sci. 2022 12(1), e1606
     doi.org/10.1002/wcms.1606

List of optional additional citations

  1. Neese, F.
     Approximate second-order SCF convergence for spin unrestricted wavefunctions
     Chem. Phys. Lett. 2000 325(1-3), 93-98
     doi.org/10.1016/s0009-2614(00)00662-x

Timings for individual modules:

Sum of individual times          ...        2.962 sec (=   0.049 min)
Geometry relaxation              ...        0.198 sec (=   0.003 min)   6.7 %
XTB module                       ...        2.764 sec (=   0.046 min)  93.3 %
                             ****ORCA TERMINATED NORMALLY****
TOTAL RUN TIME: 0 days 0 hours 0 minutes 3 seconds 476 msec
