
                                 *****************
                                 * O   R   C   A *
                                 *****************

                                            #,                                       
                                            ###                                      
                                            ####                                     
                                            #####                                    
                                            ######                                   
                                           ########,                                 
                                     ,,################,,,,,                         
                               ,,#################################,,                 
                          ,,##########################################,,             
                       ,#########################################, ''#####,          
                    ,#############################################,,   '####,        
                  ,##################################################,,,,####,       
                ,###########''''           ''''###############################       
              ,#####''   ,,,,##########,,,,          '''####'''          '####       
            ,##' ,,,,###########################,,,                        '##       
           ' ,,###''''                  '''############,,,                           
         ,,##''                                '''############,,,,        ,,,,,,###''
      ,#''                                            '''#######################'''  
     '                                                          ''''####''''         
             ,#######,   #######,   ,#######,      ##                                
            ,#'     '#,  ##    ##  ,#'     '#,    #''#        ,####,    ,#,          
            ##       ##  ##   ,#'  ##            #'  '#       #'       ,# #          
            ##       ##  #######   ##           ,######,      #####,      #          
            '#,     ,#'  ##    ##  '#,     ,#' ,#      #,     #,   #      #          
             '#######'   ##     ##  '#######'  #'      '#     '####' #    #          



                #########################################################
                #                        -***-                          #
                #          Department of theory and spectroscopy        #
                #                                                       #
                #                      Frank Neese                      #
                #                                                       #
                #     Directorship, Architecture, Infrastructure        #
                #                    SHARK, DRIVERS                     #
                #        Core code/Algorithms in most modules           #
                #                                                       #
                #        Max Planck Institute fuer Kohlenforschung      #
                #                Kaiser Wilhelm Platz 1                 #
                #                 D-45470 Muelheim/Ruhr                 #
                #                      Germany                          #
                #                                                       #
                #                  All rights reserved                  #
                #                        -***-                          #
                #########################################################


                         Program Version 6.1.1  -  RELEASE   -
                                (GIT: $487d211c$)
                          ($2025-11-21 10:33:24 +0100$)
                                                                         
                                  - NO-DMRG VERSION -                    
                                                                         


 With contributions from (in alphabetic order):
[Max-Planck-Institut fuer Kohlenforschung]                               
  Daniel Aravena         : Magnetic Suceptibility                        
  Michael Atanasov       : Ab Initio Ligand Field Theory (pilot matlab implementation)
  Alexander A. Auer      : GIAO ZORA, VPT2 properties, NMR spectrum      
  Ute Becker             : All parallelization in ORCA, NUMFREQ, NUMCALC 
  Giovanni Bistoni       : ED, misc. LED, open-shell LED, HFLD           
  Dmytro Bykov           : pre 5.0 version of the SCF Hessian            
  Marcos Casanova-Páez   : Triplet and SCS-CIS(D). UHF-(DLPNO)-IP/EA/STEOM-CCSD. UHF-CVS-IP/STEOM-CCSD   
  Vijay G. Chilkuri      : MRCI spin determinant printing, contributions to CSF-ICE 
  Pauline Colinet        : FMM embedding                                 
  Dipayan Datta          : RHF DLPNO-CCSD density                        
  Achintya Kumar Dutta   : EOM-CC, STEOM-CC                              
  Nicolas Foglia         : Exact transition moments, OPA infrastructure, MCD improvements    
  Dmitry Ganyushin       : Spin-Orbit,Spin-Spin,Magnetic field MRCI      
  Miquel Garcia-Rates    : C-PCM and meta-GGA Hessian, CCSD/C-PCM, Gaussian charge scheme 
  Tiago L. C. Gouveia    : GS-ROHF, GS-ROCIS                             
  Yang Guo               : DLPNO-NEVPT2, F12-NEVPT2, CIM, IAO-localization        
  Andreas Hansen         : Spin unrestricted coupled pair/coupled cluster methods 
  Ingolf Harden          : AUTO-CI MPn and infrastructure                
  Benjamin Helmich-Paris : MC-RPA, TRAH-(SCF,CASSCF), AVAS, COSX integrals, SCF dyn. polar., MC-PDFT, srDFT 
  Lee Huntington         : MR-EOM, pCC                                   
  Robert Izsak           : Overlap fitted RIJCOSX, COSX-SCS-MP3, EOM     
  Riya Kayal             : Wick's Theorem for AUTO-CI, AUTO-CI UHF-CCSDT 
  Emily Kempfer          : AUTO-CI RHF CISDT and CCSDT, approximate NEVPT4
  Christian Kollmar      : KDIIS, OOCD, Brueckner-CCSD(T), CCSD density, CASPT2, CASPT2-K, improved NEVPT2 
  Axel Koslowski         : Symmetry handling                             
  Simone Kossmann        : meta-GGA functionals, TD-DFT gradient, OOMP2, (MP2 Hessian; deprecated post 5.0) 
  Lucas Lang             : DCDCAS, Hyperfine gauge corrections, ICE-SOC+SSC
  Marvin Lechner         : AUTO-CI (C++ implementation), FIC-MRCC        
  Spencer Leger          : CASSCF response                               
  Dagmar Lenk            : GEPOL surface, SMD, ORCA-2-JSON               
  Dimitrios Liakos       : Extrapolation schemes; Compound Job, Property file
  Dimitrios Manganas     : Further ROCIS development; embedding schemes. LFT, Crystal Embedding 
  Dimitrios Pantazis     : SARC Basis sets                               
  Anastasios Papadopoulos: AUTO-CI, single reference methods and gradients 
  Taras Petrenko         : pre 6.0 DFT Hessian and TD-DFT gradient,  ECA, NRVS 
  Petra Pikulova         : Analytic Raman intensities                    
  Peter Pinski           : DLPNO-MP2, DLPNO-MP2 Gradient                 
  Shashank Vittal Rao    : ES-AILFT, MagRelax                            
  Christoph Reimann      : Effective Core Potentials                     
  Marius Retegan         : Local ZFS, SOC                                
  Christoph Riplinger    : Optimizer, TS searches, QM/MM, DLPNO-CCSD(T), (RO)-DLPNO pert. Triples 
  Michael Roemelt        : Original ROCIS implementation, recursive CI coupling coefficients
  Masaaki Saitow         : Open-shell DLPNO-CCSD energy and density      
  Barbara Sandhoefer     : DKH picture change effects                    
  Yorick L. A. Schmerwitz: GMF and freeze-and-release deltaSCF, NEB S-IDPP initial path                    
  Kantharuban Sivalingam : CASSCF convergence/infrastructure, NEVPT2, NEVPT3, NEVPT4(SD), FIC-MRCI and CEPA variants
  Bernardo de Souza      : ESD, SOC TD-DFT                               
  Georgi L. Stoychev     : AutoAux, RI-MP2 NMR, DLPNO-MP2 response, X2C  
  Van Anh Tran           : RI-MP2 g-tensors                              
  Willem Van den Heuvel  : Paramagnetic NMR                              
  Zikuan Wang            : NOTCH, Electric field optimization            
  Frank Wennmohs         : Technical directorship and infrastructure     
  Hang Xu                : AUTO-CI-Response properties                   
                                                                         
[FACCTs GmbH]                                                            
  Markus Bursch, Nicolas Foglia, Miquel Garcia-Rates, Ingolf Harden, Hagen Neugebauer, Anastasios Papadopoulos, 
  Christoph Riplinger, Bernardo de Souza, Georgi L. Stoychev                                                    
                                                                 
  APM, various basis sets, CI-OPT, improved COSX, DLPNO-Multilevel,           
  DOCKER, DRACO, updates on ESD, Fragmentator, GOAT, IRC, LR-CPCM, L-BFGS, MBIS, meta-GGA TD-DFT gradient, ML-optimized integration grids, 
  MM, NACMEs, nearIR, NEB, NEB-TS, NL-DFT gradient (VV10), 2- and 3-layer-ONIOM, interface openCOSMO-RS, QMMM,   
  Crystal-QMMM, RESP, rigid body optimization, SF, symmetry and pop. for TD-DFT, various functionals, SOLVATOR                                   
                                                                         
[Other institutions]                                                     
  V. Asgeirsson          : NEB                                           
  Christoph Bannwarth    : sTDA-DFT, sTD-DFT, PBEh-3c, B97-3c, D3        
  Giovanni Bistoni       : ETS/NOCV, ADLD/ADEX, COVALED                  
  Martin Brehm           : Molecular dynamics                            
  Ronald Cardenas        : ETS/NOCV                                      
  Martina Colucci        : COVALED                                       
  Sebastian Ehlert       : rSCAN, r2SCAN, r2SCAN-3c, D4, dhf basis sets  
  Marvin Friede          : D4 for Fr, Ra, Ac-Lr                          
  Lars Goerigk           : TD-DFT with DH, B97 family of functionals     
  Stefan Grimme          : VdW corrections, initial TS optimization, DFT functionals, gCP, sTDA/sTD-DF 
  Waldemar Hujo          : DFT-NL                                        
  H. Jonsson             : NEB                                           
  Holger Kruse           : gCP                                           
  Marcel Mueller         : wB97X-3c, vDZP basis set                      
  Hagen Neugebauer       : wr2SCAN, Native XTB                           
  Gianluca Regni         : ADLD/ADEX                                     
  Tobias Risthaus        : pre 6.0 range-separated hybrid DFT and stability analysis
  Lukas Wittmann         : regularized MP2, r2SCAN double-hybrids, wr2SCAN        
                                                                         
We gratefully acknowledge several colleagues who have allowed us to      
interface, adapt or use parts of their codes:                            
  Ed Valeev, F. Pavosevic, A. Kumar             : LibInt (2-el integral package), F12 methods 
  Garnet Chan, S. Sharma, J. Yang, R. Olivares  : DMRG                   
  Ulf Ekstrom                                   : XCFun DFT Library      
  Mihaly Kallay                                 : mrcc  (arbitrary order and MRCC methods)
  Frank Weinhold                                : gennbo (NPA and NBO analysis)           
  Simon Mueller                                 : openCOSMO-RS                            
  Christopher J. Cramer and Donald G. Truhlar   : smd solvation model                     
  S Lehtola, MJT Oliveira, MAL Marques          : LibXC Library                           
  Liviu Ungur et al                             : ANISO software                          


 Your calculation uses the libint2 library for the computation of 2-el integrals
 For citations please refer to: http://libint.valeyev.net

 Your ORCA version has been built with support for libXC version: 7.0.0
 For citations please refer to: https://libxc.gitlab.io

 This ORCA versions uses:
   CBLAS   interface :  Fast vector & matrix operations
   LAPACKE interface :  Fast linear algebra routines
   SCALAPACK package :  Parallel linear algebra routines
   Shared memory     :  Shared parallel matrices
   BLAS/LAPACK       :  OpenBLAS 0.3.29  USE64BITINT DYNAMIC_ARCH NO_AFFINITY Zen SINGLE_THREADED
        Core in use  :  Zen
   Copyright (c) 2011-2014, The OpenBLAS Project


  ***********************************
  * Starting time: Fri Apr 17 12:14:27 2026
  * Host name:     vmi3233575
  * Process ID:    335305
  * Working dir.:  /root/orca_b12_vps_pack/jobs/01_xtb/mult_1
  ***********************************

NOTE: MaxCore=500 MB was set to SCF,MP2,MDCI,CIPSI,MRCI,RASCI and CIS
      => If you want to overwrite this, your respective input block should be placed after the MaxCore statement


***************************************
The coordinates will be read from file: ../../../starts/zigzag_chain12_d1.50.xyz
***************************************


Your calculation utilizes the semiempirical GFN2-xTB method
Please cite in your paper:
Bannwarth, C.; Ehlert S.; Grimme, S. J. Chem. Theory Comput. 2019, 15, 1652.
   

================================================================================

================================================================================
                                        WARNINGS
                       Please study these warnings very carefully!
================================================================================


WARNING: Geometry Optimization
  ===> : Switching off AutoStart
         For restart on a previous wavefunction, please use MOREAD

WARNING: Found dipole moment calculation with XTB calculation
  ===> : Switching off dipole moment calculation

Environment variable XTBEXE for xtb has been set!

================================================================================
                                       INPUT FILE
================================================================================
NAME = zigzag_chain12_d1.50_m1.inp
|  1> ! GFN2-xTB TightSCF TightOpt
|  2> 
|  3> %pal
|  4>   nprocs 1
|  5> end
|  6> 
|  7> %maxcore 500
|  8> 
|  9> * xyzfile 0 1 ../../../starts/zigzag_chain12_d1.50.xyz
| 10> 
| 11>                          ****END OF INPUT****
================================================================================

                       *****************************
                       * Geometry Optimization Run *
                       *****************************

Geometry optimization settings:
Update method            Update   .... BFGS
Choice of coordinates    CoordSys .... (2022) Redundant Internals
Initial Hessian          InHess   .... Almloef's Model
Max. no of cycles        MaxIter  .... 50

Convergence Tolerances:
Energy Change            TolE     ....  1.0000e-06 Eh
Max. Gradient            TolMAXG  ....  1.0000e-04 Eh/bohr
RMS Gradient             TolRMSG  ....  3.0000e-05 Eh/bohr
Max. Displacement        TolMAXD  ....  1.0000e-03 bohr
RMS Displacement         TolRMSD  ....  6.0000e-04 bohr
Strict Convergence                .... False

------------------------------------------------------------------------------
                        ORCA OPTIMIZATION COORDINATE SETUP
------------------------------------------------------------------------------

The optimization will be done in redundant internal coordinates (2022)
Making redundant internal coordinates   ...  (2022 redundants) done
Evaluating the initial hessian          ...  (Almloef) done
Evaluating the coordinates              ...  done
Calculating the B-matrix                .... done
Calculating the G-matrix                .... done
The number of degrees of freedom        ....   30

    -----------------------------------------------------------------
                    Redundant Internal Coordinates


    -----------------------------------------------------------------
         Definition                    Initial Value    Approx d2E/dq
    -----------------------------------------------------------------
      1. B(B   1,B   0)                  1.7340         0.236852   
      2. B(B   2,B   1)                  1.7340         0.236852   
      3. B(B   3,B   2)                  1.7340         0.236852   
      4. B(B   4,B   3)                  1.7340         0.236852   
      5. B(B   5,B   4)                  1.7340         0.236852   
      6. B(B   6,B   5)                  1.7340         0.236852   
      7. B(B   7,B   6)                  1.7340         0.236852   
      8. B(B   8,B   7)                  1.7340         0.236852   
      9. B(B   9,B   8)                  1.7340         0.236852   
     10. B(B  10,B   9)                  1.7340         0.236852   
     11. B(B  11,B  10)                  1.7340         0.236852   
     12. A(B   0,B   1,B   2)          105.4672         0.321915   
     13. A(B   1,B   2,B   3)          105.4672         0.321915   
     14. A(B   2,B   3,B   4)          105.4672         0.321915   
     15. A(B   3,B   4,B   5)          105.4672         0.321915   
     16. A(B   4,B   5,B   6)          105.4672         0.321915   
     17. A(B   5,B   6,B   7)          105.4672         0.321915   
     18. A(B   6,B   7,B   8)          105.4672         0.321915   
     19. A(B   7,B   8,B   9)          105.4672         0.321915   
     20. A(B   8,B   9,B  10)          105.4672         0.321915   
     21. A(B   9,B  10,B  11)          105.4672         0.321915   
     22. D(B   3,B   2,B   1,B   0)    180.0000         0.010000   
     23. D(B   4,B   3,B   2,B   1)    180.0000         0.010000   
     24. D(B   5,B   4,B   3,B   2)    180.0000         0.010000   
     25. D(B   6,B   5,B   4,B   3)    180.0000         0.010000   
     26. D(B   7,B   6,B   5,B   4)    180.0000         0.010000   
     27. D(B   8,B   7,B   6,B   5)    180.0000         0.010000   
     28. D(B   9,B   8,B   7,B   6)    180.0000         0.010000   
     29. D(B  10,B   9,B   8,B   7)    180.0000         0.010000   
     30. D(B  11,B  10,B   9,B   8)    180.0000         0.010000   
    -----------------------------------------------------------------

Number of atoms                         .... 12
Number of degrees of freedom            .... 30


         *************************************************************
         *                GEOMETRY OPTIMIZATION CYCLE   1            *
         *************************************************************
---------------------------------
CARTESIAN COORDINATES (ANGSTROEM)
---------------------------------
  B    -7.590000    0.525000    0.000000
  B    -6.210000   -0.525000    0.000000
  B    -4.830000    0.525000    0.000000
  B    -3.450000   -0.525000    0.000000
  B    -2.070000    0.525000    0.000000
  B    -0.690000   -0.525000    0.000000
  B     0.690000    0.525000    0.000000
  B     2.070000   -0.525000    0.000000
  B     3.450000    0.525000    0.000000
  B     4.830000   -0.525000    0.000000
  B     6.210000    0.525000    0.000000
  B     7.590000   -0.525000    0.000000

----------------------------
CARTESIAN COORDINATES (A.U.)
----------------------------
  NO LB    ZA    FRAG    MASS        X           Y           Z
   0 B   5.0000    0    10.810  -14.343021    0.992106    0.000000
   1 B   5.0000    0    10.810  -11.735199   -0.992106    0.000000
   2 B   5.0000    0    10.810   -9.127377    0.992106    0.000000
   3 B   5.0000    0    10.810   -6.519555   -0.992106    0.000000
   4 B   5.0000    0    10.810   -3.911733    0.992106    0.000000
   5 B   5.0000    0    10.810   -1.303911   -0.992106    0.000000
   6 B   5.0000    0    10.810    1.303911    0.992106    0.000000
   7 B   5.0000    0    10.810    3.911733   -0.992106    0.000000
   8 B   5.0000    0    10.810    6.519555    0.992106    0.000000
   9 B   5.0000    0    10.810    9.127377   -0.992106    0.000000
  10 B   5.0000    0    10.810   11.735199    0.992106    0.000000
  11 B   5.0000    0    10.810   14.343021   -0.992106    0.000000

      -----------------------------------------------------------      
     |                   =====================                   |     
     |                           x T B                           |     
     |                   =====================                   |     
     |                         S. Grimme                         |     
     |          Mulliken Center for Theoretical Chemistry        |     
     |                    University of Bonn                     |     
      -----------------------------------------------------------      

   * xtb version 6.6.1 (unknown) compiled by 'builduser@buildhost' on 2023-08-07

   xtb is free software: you can redistribute it and/or modify it under
   the terms of the GNU Lesser General Public License as published by
   the Free Software Foundation, either version 3 of the License, or
   (at your option) any later version.
   
   xtb is distributed in the hope that it will be useful,
   but WITHOUT ANY WARRANTY; without even the implied warranty of
   MERCHANTABILITY or FITNESS FOR A PARTICULAR PURPOSE.  See the
   GNU Lesser General Public License for more details.
   
   Cite this work as:
   * C. Bannwarth, E. Caldeweyher, S. Ehlert, A. Hansen, P. Pracht,
     J. Seibert, S. Spicher, S. Grimme, WIREs Comput. Mol. Sci., 2020, 11,
     e01493. DOI: 10.1002/wcms.1493
   
   for GFN2-xTB:
   * C. Bannwarth, S. Ehlert and S. Grimme., J. Chem. Theory Comput., 2019,
     15, 1652-1671. DOI: 10.1021/acs.jctc.8b01176
   for GFN1-xTB:
   * S. Grimme, C. Bannwarth, P. Shushkov, J. Chem. Theory Comput., 2017,
     13, 1989-2009. DOI: 10.1021/acs.jctc.7b00118
   for GFN0-xTB:
   * P. Pracht, E. Caldeweyher, S. Ehlert, S. Grimme, ChemRxiv, 2019, preprint.
     DOI: 10.26434/chemrxiv.8326202.v1
   for GFN-FF:
   * S. Spicher and S. Grimme, Angew. Chem. Int. Ed., 2020, 59, 15665-15673.
     DOI: 10.1002/anie.202004239
   
   for ALPB and GBSA implicit solvation:
   * S. Ehlert, M. Stahn, S. Spicher, S. Grimme, J. Chem. Theory Comput.,
     2021, 17, 4250-4261. DOI: 10.1021/acs.jctc.1c00471
   
   for DFT-D4:
   * E. Caldeweyher, C. Bannwarth and S. Grimme, J. Chem. Phys., 2017,
     147, 034112. DOI: 10.1063/1.4993215
   * E. Caldeweyher, S. Ehlert, A. Hansen, H. Neugebauer, S. Spicher,
     C. Bannwarth and S. Grimme, J. Chem. Phys., 2019, 150, 154122.
     DOI: 10.1063/1.5090222
   * E. Caldeweyher, J.-M. Mewes, S. Ehlert and S. Grimme, Phys. Chem. Chem. Phys.
     2020, 22, 8499-8512. DOI: 10.1039/D0CP00502A
   
   for sTDA-xTB:
   * S. Grimme and C. Bannwarth, J. Chem. Phys., 2016, 145, 054103.
     DOI: 10.1063/1.4959605
   
   in the mass-spec context:
   * V. Asgeirsson, C. Bauer and S. Grimme, Chem. Sci., 2017, 8, 4879.
     DOI: 10.1039/c7sc00601b
   * J. Koopman and S. Grimme, ACS Omega 2019, 4, 12, 15120-15133.
     DOI: 10.1021/acsomega.9b02011
   
   for metadynamics refer to:
   * S. Grimme, J. Chem. Theory Comput., 2019, 155, 2847-2862
     DOI: 10.1021/acs.jctc.9b00143
   
   for SPH calculations refer to:
   * S. Spicher and S. Grimme, J. Chem. Theory Comput., 2021, 17, 1701-1714
     DOI: 10.1021/acs.jctc.0c01306
   
   with help from (in alphabetical order)
   P. Atkinson, C. Bannwarth, F. Bohle, G. Brandenburg, E. Caldeweyher
   M. Checinski, S. Dohm, S. Ehlert, S. Ehrlich, I. Gerasimov, C. Hölzer
   A. Katbashev, J. Koopman, C. Lavigne, S. Lehtola, F. März, M. Müller,
   F. Musil, H. Neugebauer, J. Pisarek, C. Plett, P. Pracht, F. Pultar,
   J. Seibert, P. Shushkov, S. Spicher, M. Stahn, M. Steiner, T. Strunk,
   J. Stückrath, T. Rose, and J. Unsleber
   
 * started run on 2026/04/17 at 12:14:27.296     

           -------------------------------------------------
          |                Calculation Setup                |
           -------------------------------------------------

          program call               : /usr/bin/xtb zigzag_chain12_d1.50_m1_XTB.xyz --grad -c 0 -u 0 -P 1 --namespace zigzag_chain12_d1.50_m1 --input zigzag_chain12_d1.50_m1_XTB.input.tmp --acc 0.200000
          calculation namespace      : zigzag_chain12_d1.50_m1
          coordinate file            : zigzag_chain12_d1.50_m1_XTB.xyz
          omp threads                :                     1

   ID    Z sym.   atoms
    1    5 B      1-12

           -------------------------------------------------
          |                 G F N 2 - x T B                 |
           -------------------------------------------------

        Reference                      10.1021/acs.jctc.8b01176
      * Hamiltonian:
        H0-scaling (s, p, d)           1.850000    2.230000    2.230000
        zeta-weighting                 0.500000
      * Dispersion:
        s8                             2.700000
        a1                             0.520000
        a2                             5.000000
        s9                             5.000000
      * Repulsion:
        kExp                           1.500000    1.000000
        rExp                           1.000000
      * Coulomb:
        alpha                          2.000000
        third order                    shell-resolved
        anisotropic                    true
        a3                             3.000000
        a5                             4.000000
        cn-shift                       1.200000
        cn-exp                         4.000000
        max-rad                        5.000000


          ...................................................
          :                      SETUP                      :
          :.................................................:
          :  # basis functions                  48          :
          :  # atomic orbitals                  48          :
          :  # shells                           24          :
          :  # electrons                        36          :
          :  max. iterations                   250          :
          :  Hamiltonian                  GFN2-xTB          :
          :  restarted?                      false          :
          :  GBSA solvation                  false          :
          :  PC potential                    false          :
          :  electronic temp.          300.0000000     K    :
          :  accuracy                    0.2000000          :
          :  -> integral cutoff          0.3198970E+02      :
          :  -> integral neglect         0.2000000E-08      :
          :  -> SCF convergence          0.2000000E-06 Eh   :
          :  -> wf. convergence          0.2000000E-04 e    :
          :  Broyden damping             0.4000000          :
          ...................................................

 iter      E             dE          RMSdq      gap      omega  full diag
   1    -13.0385563 -0.130386E+02  0.233E+01    0.50       0.0  T
   2      5.3963189  0.184349E+02  0.226E+01    0.02       1.0  T
   3     29.8321793  0.244359E+02  0.318E+01    0.79       1.0  T
   4    -11.6659524 -0.414981E+02  0.136E+01    0.57       1.0  T
   5     -6.9593943  0.470656E+01  0.172E+01    0.18       1.0  T
   6    -12.2386576 -0.527926E+01  0.103E+01    0.18       1.0  T
   7    -13.4189793 -0.118032E+01  0.762E+00    0.01       1.0  T
   8    -13.0799025  0.339077E+00  0.748E+00    0.11       1.0  T
   9    -12.8903044  0.189598E+00  0.781E+00    0.27       1.0  T
  10    -13.3207937 -0.430489E+00  0.649E+00    0.17       1.0  T
  11    -13.2937843  0.270094E-01  0.636E+00    0.16       1.0  T
  12    -13.3594300 -0.656456E-01  0.583E+00    0.15       1.0  T
  13    -13.4777286 -0.118299E+00  0.455E+00    0.13       1.0  T
  14    -13.4718500  0.587852E-02  0.460E+00    0.14       1.0  T
  15    -13.5456978 -0.738477E-01  0.235E+00    0.13       1.0  T
  16    -13.5677877 -0.220899E-01  0.167E+00    0.15       1.0  T
  17    -13.5757837 -0.799603E-02  0.109E+00    0.15       1.0  T
  18    -13.5714814  0.430232E-02  0.934E-01    0.15       1.0  T
  19    -13.5749852 -0.350377E-02  0.853E-01    0.15       1.0  T
  20    -13.5866241 -0.116389E-01  0.407E-01    0.14       1.0  T
  21    -13.5888500 -0.222587E-02  0.259E-01    0.13       1.0  T
  22    -13.5897189 -0.868908E-03  0.238E-01    0.13       1.0  T
  23    -13.5896331  0.857535E-04  0.242E-01    0.13       1.0  T
  24    -13.5899307 -0.297602E-03  0.181E-01    0.13       1.0  T
  25    -13.5901508 -0.220095E-03  0.112E-01    0.13       1.0  T
  26    -13.5901950 -0.441792E-04  0.934E-02    0.13       1.0  T
  27    -13.5902169 -0.219160E-04  0.841E-02    0.13       1.0  T
  28    -13.5902230 -0.605246E-05  0.790E-02    0.13       1.0  T
  29    -13.5902148  0.816824E-05  0.661E-02    0.13       1.0  T
  30    -13.5902165 -0.169851E-05  0.566E-02    0.12       1.0  T
  31    -13.5902459 -0.294414E-04  0.198E-02    0.13       1.5  T
  32    -13.5902472 -0.129933E-05  0.109E-02    0.13       2.7  T
  33    -13.5902489 -0.162526E-05  0.491E-03    0.13       5.9  T
  34    -13.5902491 -0.229167E-06  0.219E-03    0.13      13.2  T
  35    -13.5902491 -0.347632E-07  0.167E-03    0.13      17.3  T
  36    -13.5902491 -0.255575E-07  0.576E-04    0.13      50.1  T
  37    -13.5902491  0.545757E-09  0.542E-04    0.13      53.2  T
  38    -13.5902492 -0.461459E-08  0.749E-05    0.13     385.6  T
  39    -13.5902492 -0.449845E-10  0.310E-05    0.13     929.9  T

   *** convergence criteria satisfied after 39 iterations ***

         #    Occupation            Energy/Eh            Energy/eV
      -------------------------------------------------------------
         1        2.0000           -0.4098777             -11.1533
       ...           ...                  ...                  ...
        12        2.0000           -0.2744771              -7.4689
        13        2.0000           -0.2724108              -7.4127
        14        2.0000           -0.2721502              -7.4056
        15        2.0000           -0.2583025              -7.0288
        16        1.9997           -0.2467128              -6.7134
        17        1.9993           -0.2460625              -6.6957
        18        1.8365           -0.2407548              -6.5513 (HOMO)
        19        0.1602           -0.2361384              -6.4257 (LUMO)
        20        0.0043           -0.2326242              -6.3300
        21                         -0.2205934              -6.0027
        22                         -0.2188734              -5.9558
        23                         -0.2104340              -5.7262
       ...                                ...                  ...
        48                          0.4749434              12.9239
      -------------------------------------------------------------
                  HL-Gap            0.0046164 Eh            0.1256 eV
             Fermi-level           -0.2384571 Eh           -6.4887 eV

 SCC (total)                   0 d,  0 h,  0 min,  0.049 sec
 SCC setup                      ...        0 min,  0.000 sec (  0.313%)
 Dispersion                     ...        0 min,  0.000 sec (  0.139%)
 classical contributions        ...        0 min,  0.000 sec (  0.058%)
 integral evaluation            ...        0 min,  0.002 sec (  4.171%)
 iterations                     ...        0 min,  0.041 sec ( 84.020%)
 molecular gradient             ...        0 min,  0.005 sec ( 10.677%)
 printout                       ...        0 min,  0.000 sec (  0.582%)

         :::::::::::::::::::::::::::::::::::::::::::::::::::::
         ::                     SUMMARY                     ::
         :::::::::::::::::::::::::::::::::::::::::::::::::::::
         :: total energy             -13.540240471407 Eh    ::
         :: gradient norm              0.389271451352 Eh/a0 ::
         :: HOMO-LUMO gap              0.125618252984 eV    ::
         ::.................................................::
         :: SCC energy               -13.590249153128 Eh    ::
         :: -> isotropic ES            0.093935106112 Eh    ::
         :: -> anisotropic ES          0.003175185990 Eh    ::
         :: -> anisotropic XC         -0.039620923117 Eh    ::
         :: -> dispersion             -0.010198037765 Eh    ::
         :: repulsion energy           0.050175067891 Eh    ::
         :: add. restraining           0.000000000000 Eh    ::
         :: total charge              -0.000000000000 e     ::
         :::::::::::::::::::::::::::::::::::::::::::::::::::::


Property printout bound to 'properties.out'

           -------------------------------------------------
          | TOTAL ENERGY              -13.540240471407 Eh   |
          | GRADIENT NORM               0.389271451352 Eh/α |
          | HOMO-LUMO GAP               0.125618252984 eV   |
           -------------------------------------------------

------------------------------------------------------------------------
 * finished run on 2026/04/17 at 12:14:27.357     
------------------------------------------------------------------------
 total:
 * wall-time:     0 d,  0 h,  0 min,  0.061 sec
 *  cpu-time:     0 d,  0 h,  0 min,  0.061 sec
 * ratio c/w:     0.999 speedup
 SCF:
 * wall-time:     0 d,  0 h,  0 min,  0.049 sec
 *  cpu-time:     0 d,  0 h,  0 min,  0.049 sec
 * ratio c/w:     0.999 speedup


-------------------------   --------------------
FINAL SINGLE POINT ENERGY       -13.540240471410
-------------------------   --------------------


-------------
DIPOLE MOMENT
-------------
                                X             Y             Z
Total Dipole Moment    :     -0.00000       0.00000       0.00000
                        -----------------------------------------
Magnitude (a.u.)       :      0.00000
Magnitude (Debye)      :      0.00000


------------------
CARTESIAN GRADIENT
------------------

   1   B   :   -0.080302127    0.060282560   -0.000000000
   2   B   :    0.021899872   -0.118991047    0.000000000
   3   B   :    0.010495221    0.115365463   -0.000000000
   4   B   :   -0.011322528   -0.113845589    0.000000000
   5   B   :   -0.006401699    0.113090822    0.000000000
   6   B   :    0.003989739   -0.108122366    0.000000000
   7   B   :   -0.003989736    0.108122370   -0.000000000
   8   B   :    0.006401702   -0.113090830    0.000000000
   9   B   :    0.011322524    0.113845596    0.000000000
  10   B   :   -0.010495222   -0.115365467   -0.000000000
  11   B   :   -0.021899871    0.118991046    0.000000000
  12   B   :    0.080302124   -0.060282558   -0.000000000

Difference to translation invariance:
           :    0.0000000000    0.0000000000   -0.0000000000

Difference to rotation invariance:
           :   -0.0000000000    0.0000000000    0.0192961207

Norm of the Cartesian gradient     ...    0.3892714514
RMS gradient                       ...    0.0648785752
MAX gradient                       ...    0.1189910468
------------------------------------------------------------------------------
                         ORCA GEOMETRY RELAXATION STEP
------------------------------------------------------------------------------

Reading the OPT-File                    .... done
Getting information on internals        .... done
Copying old internal coords+grads       .... done
Making the new internal coordinates     .... (2022 redundants) done
Validating the new internal coordinates .... (2022 redundants) done
Calculating the B-matrix                .... done
Calculating the G,G- and P matrices     .... done
Transforming gradient to internals      .... done
Projecting the internal gradient        .... done
Number of atoms                         ....  12
Number of internal coordinates          ....  30
Current Energy                          ....   -13.540240471 Eh
Current gradient norm                   ....     0.389271451 Eh/bohr
Maximum allowed component of the step   ....  0.300
Current trust radius                    ....  0.300
Evaluating the initial hessian          ....  (Almloef) done
Projecting the Hessian                  .... done
Forming the augmented Hessian           .... done
Diagonalizing the augmented Hessian     .... done
Last element of RFO vector              ....  0.832161099
Lowest eigenvalues of augmented Hessian:
 -0.191358112  0.010000000  0.010000000  0.010000000  0.010000000
Length of the computed step             ....  0.666378125
Warning: the length of the step is outside the trust region - taking restricted step instead
The input lambda is                     ....     0.009000
   iter:   5  x=   -0.696320  g=    0.279795 f(x)=     0.027304
   iter:  10  x=   -0.717519  g=    0.188012 f(x)=     0.000000
The output lambda is                    ....    -0.717519 (10 iterations)
The final length of the internal step   ....  0.300000000
Converting the step to Cartesian space:
 Initial RMS(Int)=    0.0547722558
Transforming coordinates:
 Iter   0:  RMS(Cart)=    0.1157170906 RMS(Int)=    2.2949439556
done
Storing new coordinates                 .... done

                                .--------------------.
          ----------------------|Geometry convergence|-------------------------
          Item                value                   Tolerance       Converged
          ---------------------------------------------------------------------
          RMS gradient        0.0524598600            0.0000300000      NO
          MAX gradient        0.1005639225            0.0001000000      NO
          RMS step            0.0547722558            0.0006000000      NO
          MAX step            0.1053719067            0.0010000000      NO
          -------------------------------------------------------------------------
          ........................................................
          Max(Bonds)      0.0558      Max(Angles)    2.05
          Max(Dihed)        0.00      Max(Improp)    0.00
          ---------------------------------------------------------------------

The optimization has not yet converged - more geometry cycles are needed


    ---------------------------------------------------------------------------
                         Redundant Internal Coordinates
                            (Angstroem and degrees)

        Definition                    Value    dE/dq     Step     New-Value
    ----------------------------------------------------------------------------
     1. B(B   1,B   0)                1.7340  0.100564 -0.0558    1.6783   
     2. B(B   2,B   1)                1.7340  0.081718 -0.0453    1.6887   
     3. B(B   3,B   2)                1.7340  0.072835 -0.0404    1.6937   
     4. B(B   4,B   3)                1.7340  0.081270 -0.0451    1.6890   
     5. B(B   5,B   4)                1.7340  0.086607 -0.0480    1.6860   
     6. B(B   6,B   5)                1.7340  0.080119 -0.0444    1.6896   
     7. B(B   7,B   6)                1.7340  0.086607 -0.0480    1.6860   
     8. B(B   8,B   7)                1.7340  0.081270 -0.0451    1.6890   
     9. B(B   9,B   8)                1.7340  0.072835 -0.0404    1.6937   
    10. B(B  10,B   9)                1.7340  0.081718 -0.0453    1.6887   
    11. B(B  11,B  10)                1.7340  0.100564 -0.0558    1.6783   
    12. A(B   0,B   1,B   2)          105.47  0.001358   -0.07    105.39   
    13. A(B   1,B   2,B   3)          105.47 -0.037244    2.05    107.52   
    14. A(B   2,B   3,B   4)          105.47 -0.017288    0.95    106.42   
    15. A(B   3,B   4,B   5)          105.47 -0.012193    0.67    106.14   
    16. A(B   4,B   5,B   6)          105.47 -0.005736    0.32    105.78   
    17. A(B   5,B   6,B   7)          105.47 -0.005736    0.32    105.78   
    18. A(B   6,B   7,B   8)          105.47 -0.012193    0.67    106.14   
    19. A(B   7,B   8,B   9)          105.47 -0.017288    0.95    106.42   
    20. A(B   8,B   9,B  10)          105.47 -0.037244    2.05    107.52   
    21. A(B   9,B  10,B  11)          105.47  0.001358   -0.07    105.39   
    22. D(B   3,B   2,B   1,B   0)    180.00  0.000000   -0.00    180.00   
    23. D(B   4,B   3,B   2,B   1)    180.00 -0.000000   -0.00    180.00   
    24. D(B   5,B   4,B   3,B   2)    180.00  0.000000   -0.00    180.00   
    25. D(B   6,B   5,B   4,B   3)    180.00 -0.000000    0.00    180.00   
    26. D(B   7,B   6,B   5,B   4)    180.00  0.000000    0.00    180.00   
    27. D(B   8,B   7,B   6,B   5)    180.00 -0.000000    0.00    180.00   
    28. D(B   9,B   8,B   7,B   6)    180.00  0.000000   -0.00    180.00   
    29. D(B  10,B   9,B   8,B   7)    180.00 -0.000000   -0.00    180.00   
    30. D(B  11,B  10,B   9,B   8)    180.00  0.000000    0.00    180.00   
    ----------------------------------------------------------------------------

Geometry step timings:
Preparation and reading OPT file:      0.000 s ( 5.645 %)
Internal coordinates            :      0.000 s ( 1.328 %)
B/P matrices and projection     :      0.000 s (16.698 %)
Hessian update/contruction      :      0.000 s (15.038 %)
Making the step                 :      0.001 s (33.966 %)
Converting the step to Cartesian:      0.000 s ( 2.419 %)
Storing new data                :      0.000 s ( 2.277 %)
Checking convergence            :      0.000 s ( 2.135 %)
Final printing                  :      0.000 s (20.398 %)
Total time                      :      0.002 s

Time for energy+gradient        :      0.076 s
Time for complete geometry iter :      0.080 s

         *************************************************************
         *                GEOMETRY OPTIMIZATION CYCLE   2            *
         *************************************************************
---------------------------------
CARTESIAN COORDINATES (ANGSTROEM)
---------------------------------
  B    -7.407997    0.537570    0.000000
  B    -6.096463   -0.509572   -0.000000
  B    -4.730311    0.483122    0.000000
  B    -3.368439   -0.523742    0.000000
  B    -2.021398    0.495146   -0.000000
  B    -0.670596   -0.513812    0.000000
  B     0.670596    0.513812    0.000000
  B     2.021398   -0.495146   -0.000000
  B     3.368439    0.523742   -0.000000
  B     4.730311   -0.483122   -0.000000
  B     6.096463    0.509572    0.000000
  B     7.407997   -0.537570    0.000000

----------------------------
CARTESIAN COORDINATES (A.U.)
----------------------------
  NO LB    ZA    FRAG    MASS        X           Y           Z
   0 B   5.0000    0    10.810  -13.999085    1.015861    0.000000
   1 B   5.0000    0    10.810  -11.520646   -0.962951   -0.000000
   2 B   5.0000    0    10.810   -8.938992    0.912968    0.000000
   3 B   5.0000    0    10.810   -6.365427   -0.989729    0.000000
   4 B   5.0000    0    10.810   -3.819889    0.935690   -0.000000
   5 B   5.0000    0    10.810   -1.267243   -0.970964    0.000000
   6 B   5.0000    0    10.810    1.267243    0.970964    0.000000
   7 B   5.0000    0    10.810    3.819889   -0.935690   -0.000000
   8 B   5.0000    0    10.810    6.365427    0.989729   -0.000000
   9 B   5.0000    0    10.810    8.938992   -0.912968   -0.000000
  10 B   5.0000    0    10.810   11.520646    0.962951    0.000000
  11 B   5.0000    0    10.810   13.999085   -1.015861    0.000000

      -----------------------------------------------------------      
     |                   =====================                   |     
     |                           x T B                           |     
     |                   =====================                   |     
     |                         S. Grimme                         |     
     |          Mulliken Center for Theoretical Chemistry        |     
     |                    University of Bonn                     |     
      -----------------------------------------------------------      

   * xtb version 6.6.1 (unknown) compiled by 'builduser@buildhost' on 2023-08-07

   xtb is free software: you can redistribute it and/or modify it under
   the terms of the GNU Lesser General Public License as published by
   the Free Software Foundation, either version 3 of the License, or
   (at your option) any later version.
   
   xtb is distributed in the hope that it will be useful,
   but WITHOUT ANY WARRANTY; without even the implied warranty of
   MERCHANTABILITY or FITNESS FOR A PARTICULAR PURPOSE.  See the
   GNU Lesser General Public License for more details.
   
   Cite this work as:
   * C. Bannwarth, E. Caldeweyher, S. Ehlert, A. Hansen, P. Pracht,
     J. Seibert, S. Spicher, S. Grimme, WIREs Comput. Mol. Sci., 2020, 11,
     e01493. DOI: 10.1002/wcms.1493
   
   for GFN2-xTB:
   * C. Bannwarth, S. Ehlert and S. Grimme., J. Chem. Theory Comput., 2019,
     15, 1652-1671. DOI: 10.1021/acs.jctc.8b01176
   for GFN1-xTB:
   * S. Grimme, C. Bannwarth, P. Shushkov, J. Chem. Theory Comput., 2017,
     13, 1989-2009. DOI: 10.1021/acs.jctc.7b00118
   for GFN0-xTB:
   * P. Pracht, E. Caldeweyher, S. Ehlert, S. Grimme, ChemRxiv, 2019, preprint.
     DOI: 10.26434/chemrxiv.8326202.v1
   for GFN-FF:
   * S. Spicher and S. Grimme, Angew. Chem. Int. Ed., 2020, 59, 15665-15673.
     DOI: 10.1002/anie.202004239
   
   for ALPB and GBSA implicit solvation:
   * S. Ehlert, M. Stahn, S. Spicher, S. Grimme, J. Chem. Theory Comput.,
     2021, 17, 4250-4261. DOI: 10.1021/acs.jctc.1c00471
   
   for DFT-D4:
   * E. Caldeweyher, C. Bannwarth and S. Grimme, J. Chem. Phys., 2017,
     147, 034112. DOI: 10.1063/1.4993215
   * E. Caldeweyher, S. Ehlert, A. Hansen, H. Neugebauer, S. Spicher,
     C. Bannwarth and S. Grimme, J. Chem. Phys., 2019, 150, 154122.
     DOI: 10.1063/1.5090222
   * E. Caldeweyher, J.-M. Mewes, S. Ehlert and S. Grimme, Phys. Chem. Chem. Phys.
     2020, 22, 8499-8512. DOI: 10.1039/D0CP00502A
   
   for sTDA-xTB:
   * S. Grimme and C. Bannwarth, J. Chem. Phys., 2016, 145, 054103.
     DOI: 10.1063/1.4959605
   
   in the mass-spec context:
   * V. Asgeirsson, C. Bauer and S. Grimme, Chem. Sci., 2017, 8, 4879.
     DOI: 10.1039/c7sc00601b
   * J. Koopman and S. Grimme, ACS Omega 2019, 4, 12, 15120-15133.
     DOI: 10.1021/acsomega.9b02011
   
   for metadynamics refer to:
   * S. Grimme, J. Chem. Theory Comput., 2019, 155, 2847-2862
     DOI: 10.1021/acs.jctc.9b00143
   
   for SPH calculations refer to:
   * S. Spicher and S. Grimme, J. Chem. Theory Comput., 2021, 17, 1701-1714
     DOI: 10.1021/acs.jctc.0c01306
   
   with help from (in alphabetical order)
   P. Atkinson, C. Bannwarth, F. Bohle, G. Brandenburg, E. Caldeweyher
   M. Checinski, S. Dohm, S. Ehlert, S. Ehrlich, I. Gerasimov, C. Hölzer
   A. Katbashev, J. Koopman, C. Lavigne, S. Lehtola, F. März, M. Müller,
   F. Musil, H. Neugebauer, J. Pisarek, C. Plett, P. Pracht, F. Pultar,
   J. Seibert, P. Shushkov, S. Spicher, M. Stahn, M. Steiner, T. Strunk,
   J. Stückrath, T. Rose, and J. Unsleber
   
 * started run on 2026/04/17 at 12:14:27.376     

           -------------------------------------------------
          |                Calculation Setup                |
           -------------------------------------------------

          program call               : /usr/bin/xtb zigzag_chain12_d1.50_m1_XTB.xyz --grad -c 0 -u 0 -P 1 --namespace zigzag_chain12_d1.50_m1 --input zigzag_chain12_d1.50_m1_XTB.input.tmp --acc 0.200000
          calculation namespace      : zigzag_chain12_d1.50_m1
          coordinate file            : zigzag_chain12_d1.50_m1_XTB.xyz
          omp threads                :                     1

   ID    Z sym.   atoms
    1    5 B      1-12

           -------------------------------------------------
          |                 G F N 2 - x T B                 |
           -------------------------------------------------

        Reference                      10.1021/acs.jctc.8b01176
      * Hamiltonian:
        H0-scaling (s, p, d)           1.850000    2.230000    2.230000
        zeta-weighting                 0.500000
      * Dispersion:
        s8                             2.700000
        a1                             0.520000
        a2                             5.000000
        s9                             5.000000
      * Repulsion:
        kExp                           1.500000    1.000000
        rExp                           1.000000
      * Coulomb:
        alpha                          2.000000
        third order                    shell-resolved
        anisotropic                    true
        a3                             3.000000
        a5                             4.000000
        cn-shift                       1.200000
        cn-exp                         4.000000
        max-rad                        5.000000

q/qsh data taken from xtbrestart
CAMM data taken from xtbrestart

          ...................................................
          :                      SETUP                      :
          :.................................................:
          :  # basis functions                  48          :
          :  # atomic orbitals                  48          :
          :  # shells                           24          :
          :  # electrons                        36          :
          :  max. iterations                   250          :
          :  Hamiltonian                  GFN2-xTB          :
          :  restarted?                       true          :
          :  GBSA solvation                  false          :
          :  PC potential                    false          :
          :  electronic temp.          300.0000000     K    :
          :  accuracy                    0.2000000          :
          :  -> integral cutoff          0.3198970E+02      :
          :  -> integral neglect         0.2000000E-08      :
          :  -> SCF convergence          0.2000000E-06 Eh   :
          :  -> wf. convergence          0.2000000E-04 e    :
          :  Broyden damping             0.4000000          :
          ...................................................

 iter      E             dE          RMSdq      gap      omega  full diag
   1    -13.6778854 -0.136779E+02  0.944E-01    0.29       0.0  T
   2    -10.9103596  0.276753E+01  0.951E+00    0.22       1.0  T
   3    -13.4667195 -0.255636E+01  0.315E+00    0.20       1.0  T
   4    -13.4053237  0.613958E-01  0.341E+00    0.19       1.0  T
   5    -13.3873008  0.180228E-01  0.353E+00    0.20       1.0  T
   6    -13.3933411 -0.604031E-02  0.348E+00    0.20       1.0  T
   7    -13.5051928 -0.111852E+00  0.243E+00    0.21       1.0  T
   8    -12.9419483  0.563244E+00  0.480E+00    0.17       1.0  T
   9    -13.6136301 -0.671682E+00  0.265E+00    0.30       1.0  T
  10    -13.6526802 -0.390501E-01  0.198E+00    0.30       1.0  T
  11    -13.6610422 -0.836198E-02  0.164E+00    0.27       1.0  T
  12    -13.6674697 -0.642747E-02  0.153E+00    0.26       1.0  T
  13    -13.6781797 -0.107101E-01  0.120E+00    0.26       1.0  T
  14    -13.6820636 -0.388381E-02  0.100E+00    0.25       1.0  T
  15    -13.6898322 -0.776867E-02  0.625E-01    0.25       1.0  T
  16    -13.6933885 -0.355626E-02  0.339E-01    0.24       1.0  T
  17    -13.6946934 -0.130493E-02  0.887E-02    0.24       1.0  T
  18    -13.6946984 -0.498874E-05  0.656E-02    0.24       1.0  T
  19    -13.6948081 -0.109742E-03  0.365E-02    0.24       1.0  T
  20    -13.6947873  0.208189E-04  0.572E-02    0.24       1.0  T
  21    -13.6948268 -0.394576E-04  0.109E-02    0.24       2.6  T
  22    -13.6948238  0.301990E-05  0.150E-02    0.24       1.9  T
  23    -13.6948274 -0.367471E-05  0.392E-03    0.24       7.4  T
  24    -13.6948274 -0.209974E-08  0.324E-03    0.24       8.9  T
  25    -13.6948275 -0.679296E-07  0.274E-03    0.24      10.5  T
  26    -13.6948273  0.172973E-06  0.478E-03    0.24       6.0  T
  27    -13.6948276 -0.282493E-06  0.947E-04    0.24      30.5  T
  28    -13.6948276 -0.155628E-07  0.563E-04    0.24      51.3  T
  29    -13.6948276 -0.732734E-08  0.250E-04    0.24     115.5  T
  30    -13.6948276 -0.108003E-08  0.910E-05    0.24     317.1  T
  31    -13.6948276 -0.211694E-09  0.358E-05    0.24     807.4  T

   *** convergence criteria satisfied after 31 iterations ***

         #    Occupation            Energy/Eh            Energy/eV
      -------------------------------------------------------------
         1        2.0000           -0.4135563             -11.2534
       ...           ...                  ...                  ...
        12        2.0000           -0.2754182              -7.4945
        13        2.0000           -0.2750765              -7.4852
        14        2.0000           -0.2731745              -7.4335
        15        2.0000           -0.2606400              -7.0924
        16        1.9974           -0.2437833              -6.6337
        17        1.9969           -0.2436128              -6.6290
        18        1.9842           -0.2420488              -6.5865 (HOMO)
        19        0.0213           -0.2331473              -6.3443 (LUMO)
        20        0.0001           -0.2280893              -6.2066
        21                         -0.2204667              -5.9992
        22                         -0.2145450              -5.8381
        23                         -0.2063064              -5.6139
       ...                                ...                  ...
        48                          0.5771957              15.7063
      -------------------------------------------------------------
                  HL-Gap            0.0089015 Eh            0.2422 eV
             Fermi-level           -0.2374544 Eh           -6.4615 eV

 SCC (total)                   0 d,  0 h,  0 min,  0.034 sec
 SCC setup                      ...        0 min,  0.000 sec (  0.337%)
 Dispersion                     ...        0 min,  0.000 sec (  0.213%)
 classical contributions        ...        0 min,  0.000 sec (  0.078%)
 integral evaluation            ...        0 min,  0.002 sec (  5.356%)
 iterations                     ...        0 min,  0.027 sec ( 81.668%)
 molecular gradient             ...        0 min,  0.004 sec ( 11.716%)
 printout                       ...        0 min,  0.000 sec (  0.579%)

         :::::::::::::::::::::::::::::::::::::::::::::::::::::
         ::                     SUMMARY                     ::
         :::::::::::::::::::::::::::::::::::::::::::::::::::::
         :: total energy             -13.623451696437 Eh    ::
         :: gradient norm              0.365727259461 Eh/a0 ::
         :: HOMO-LUMO gap              0.242222021788 eV    ::
         ::.................................................::
         :: SCC energy               -13.694827641206 Eh    ::
         :: -> isotropic ES            0.098215019786 Eh    ::
         :: -> anisotropic ES          0.003192648388 Eh    ::
         :: -> anisotropic XC         -0.038596786381 Eh    ::
         :: -> dispersion             -0.010411025959 Eh    ::
         :: repulsion energy           0.071548110180 Eh    ::
         :: add. restraining           0.000000000000 Eh    ::
         :: total charge               0.000000000209 e     ::
         :::::::::::::::::::::::::::::::::::::::::::::::::::::


Property printout bound to 'properties.out'

           -------------------------------------------------
          | TOTAL ENERGY              -13.623451696437 Eh   |
          | GRADIENT NORM               0.365727259461 Eh/α |
          | HOMO-LUMO GAP               0.242222021788 eV   |
           -------------------------------------------------

------------------------------------------------------------------------
 * finished run on 2026/04/17 at 12:14:27.420     
------------------------------------------------------------------------
 total:
 * wall-time:     0 d,  0 h,  0 min,  0.044 sec
 *  cpu-time:     0 d,  0 h,  0 min,  0.044 sec
 * ratio c/w:     1.000 speedup
 SCF:
 * wall-time:     0 d,  0 h,  0 min,  0.034 sec
 *  cpu-time:     0 d,  0 h,  0 min,  0.034 sec
 * ratio c/w:     1.000 speedup


-------------------------   --------------------
FINAL SINGLE POINT ENERGY       -13.623451696440
-------------------------   --------------------


-------------
DIPOLE MOMENT
-------------
                                X             Y             Z
Total Dipole Moment    :      0.00000      -0.00000       0.00000
                        -----------------------------------------
Magnitude (a.u.)       :      0.00000
Magnitude (Debye)      :      0.00000


------------------
CARTESIAN GRADIENT
------------------

   1   B   :   -0.076277483    0.062097183    0.000000000
   2   B   :    0.022857774   -0.114958901   -0.000000000
   3   B   :    0.012816146    0.106473297   -0.000000000
   4   B   :   -0.013474229   -0.106636144    0.000000000
   5   B   :   -0.007410753    0.103210983   -0.000000000
   6   B   :    0.006344915   -0.098308327    0.000000000
   7   B   :   -0.006344821    0.098308355    0.000000000
   8   B   :    0.007410619   -0.103211066   -0.000000000
   9   B   :    0.013474287    0.106636182    0.000000000
  10   B   :   -0.012816131   -0.106473269    0.000000000
  11   B   :   -0.022857858    0.114958929   -0.000000000
  12   B   :    0.076277535   -0.062097223    0.000000000

Difference to translation invariance:
           :   -0.0000000000   -0.0000000000    0.0000000000

Difference to rotation invariance:
           :   -0.0000000000    0.0000000000    0.0000000024

Norm of the Cartesian gradient     ...    0.3657272595
RMS gradient                       ...    0.0609545432
MAX gradient                       ...    0.1149589295
------------------------------------------------------------------------------
                         ORCA GEOMETRY RELAXATION STEP
------------------------------------------------------------------------------

Reading the OPT-File                    .... done
Getting information on internals        .... done
Copying old internal coords+grads       .... done
Making the new internal coordinates     .... (2022 redundants) done
Validating the new internal coordinates .... (2022 redundants) done
Calculating the B-matrix                .... done
Calculating the G,G- and P matrices     .... done
Transforming gradient to internals      .... done
Projecting the internal gradient        .... done
Number of atoms                         ....  12
Number of internal coordinates          ....  30
Current Energy                          ....   -13.623451696 Eh
Current gradient norm                   ....     0.365727259 Eh/bohr
Maximum allowed component of the step   ....  0.300
Current trust radius                    ....  0.300
Updating the Hessian (BFGS)             .... done
Forming the augmented Hessian           .... done
Diagonalizing the augmented Hessian     .... done
Last element of RFO vector              ....  0.740939954
Lowest eigenvalues of augmented Hessian:
 -0.242175205  0.010000000  0.010000000  0.010000000  0.010000000
Length of the computed step             ....  0.906377468
Warning: the length of the step is outside the trust region - taking restricted step instead
The input lambda is                     ....     0.009000
   iter:   5  x=   -0.258975  g=   15.084847 f(x)=     1.501547
   iter:  10  x=   -0.837067  g=    0.216986 f(x)=     0.004422
The output lambda is                    ....    -0.837813 (14 iterations)
The final length of the internal step   ....  0.300000000
Converting the step to Cartesian space:
 Initial RMS(Int)=    0.0547722558
Transforming coordinates:
 Iter   0:  RMS(Cart)=    0.1062564059 RMS(Int)=    1.9876701005
done
Storing new coordinates                 .... done
The predicted energy change is          ....    -0.077860130
Previously predicted energy change      ....    -0.075382254
Actually observed energy change         ....    -0.083211225
Ratio of predicted to observed change   ....     1.103856952
New trust radius                        ....     0.450000000

                                .--------------------.
          ----------------------|Geometry convergence|-------------------------
          Item                value                   Tolerance       Converged
          ---------------------------------------------------------------------
          Energy change      -0.0832112250            0.0000010000      NO
          RMS gradient        0.0489146157            0.0000300000      NO
          MAX gradient        0.0983537142            0.0001000000      NO
          RMS step            0.0547722558            0.0006000000      NO
          MAX step            0.1128397585            0.0010000000      NO
          -------------------------------------------------------------------------
          ........................................................
          Max(Bonds)      0.0597      Max(Angles)    2.05
          Max(Dihed)        0.00      Max(Improp)    0.00
          ---------------------------------------------------------------------

The optimization has not yet converged - more geometry cycles are needed


    ---------------------------------------------------------------------------
                         Redundant Internal Coordinates
                            (Angstroem and degrees)

        Definition                    Value    dE/dq     Step     New-Value
    ----------------------------------------------------------------------------
     1. B(B   1,B   0)                1.6783  0.098354 -0.0597    1.6186   
     2. B(B   2,B   1)                1.6887  0.074289 -0.0434    1.6454   
     3. B(B   3,B   2)                1.6937  0.064521 -0.0371    1.6565   
     4. B(B   4,B   3)                1.6890  0.075117 -0.0443    1.6447   
     5. B(B   5,B   4)                1.6860  0.079296 -0.0465    1.6395   
     6. B(B   6,B   5)                1.6896  0.073040 -0.0427    1.6469   
     7. B(B   7,B   6)                1.6860  0.079296 -0.0465    1.6395   
     8. B(B   8,B   7)                1.6890  0.075117 -0.0443    1.6447   
     9. B(B   9,B   8)                1.6937  0.064521 -0.0371    1.6565   
    10. B(B  10,B   9)                1.6887  0.074289 -0.0434    1.6454   
    11. B(B  11,B  10)                1.6783  0.098354 -0.0597    1.6186   
    12. A(B   0,B   1,B   2)          105.39 -0.002965    0.31    105.70   
    13. A(B   1,B   2,B   3)          107.52 -0.033294    2.04    109.56   
    14. A(B   2,B   3,B   4)          106.42 -0.027422    2.05    108.47   
    15. A(B   3,B   4,B   5)          106.14 -0.003431   -0.02    106.12   
    16. A(B   4,B   5,B   6)          105.78 -0.007440    0.53    106.31   
    17. A(B   5,B   6,B   7)          105.78 -0.007440    0.53    106.31   
    18. A(B   6,B   7,B   8)          106.14 -0.003431   -0.02    106.12   
    19. A(B   7,B   8,B   9)          106.42 -0.027422    2.05    108.47   
    20. A(B   8,B   9,B  10)          107.52 -0.033294    2.04    109.56   
    21. A(B   9,B  10,B  11)          105.39 -0.002965    0.31    105.70   
    22. D(B   3,B   2,B   1,B   0)    180.00  0.000000    0.00    180.00   
    23. D(B   4,B   3,B   2,B   1)    180.00  0.000000    0.00    180.00   
    24. D(B   5,B   4,B   3,B   2)    180.00  0.000000    0.00    180.00   
    25. D(B   6,B   5,B   4,B   3)   -180.00  0.000000   -0.00   -180.00   
    26. D(B   7,B   6,B   5,B   4)   -180.00  0.000000   -0.00   -180.00   
    27. D(B   8,B   7,B   6,B   5)   -180.00  0.000000   -0.00   -180.00   
    28. D(B   9,B   8,B   7,B   6)    180.00  0.000000    0.00    180.00   
    29. D(B  10,B   9,B   8,B   7)    180.00  0.000000    0.00    180.00   
    30. D(B  11,B  10,B   9,B   8)   -180.00  0.000000   -0.00   -180.00   
    ----------------------------------------------------------------------------

Geometry step timings:
Preparation and reading OPT file:      0.000 s ( 2.187 %)
Internal coordinates            :      0.000 s ( 2.612 %)
B/P matrices and projection     :      0.000 s (20.535 %)
Hessian update/contruction      :      0.000 s (17.740 %)
Making the step                 :      0.000 s (23.998 %)
Converting the step to Cartesian:      0.000 s ( 2.795 %)
Storing new data                :      0.000 s ( 2.734 %)
Checking convergence            :      0.000 s ( 3.038 %)
Final printing                  :      0.000 s (24.180 %)
Total time                      :      0.002 s

Time for energy+gradient        :      0.059 s
Time for complete geometry iter :      0.061 s

         *************************************************************
         *                GEOMETRY OPTIMIZATION CYCLE   3            *
         *************************************************************
---------------------------------
CARTESIAN COORDINATES (ANGSTROEM)
---------------------------------
  B    -7.247944    0.513742    0.000000
  B    -5.984090   -0.497415   -0.000000
  B    -4.646866    0.461249    0.000000
  B    -3.286574   -0.484134   -0.000000
  B    -1.968474    0.499583   -0.000000
  B    -0.661531   -0.490360    0.000000
  B     0.661531    0.490359   -0.000000
  B     1.968474   -0.499583   -0.000000
  B     3.286574    0.484134   -0.000000
  B     4.646866   -0.461249    0.000000
  B     5.984090    0.497415   -0.000000
  B     7.247943   -0.513742    0.000000

----------------------------
CARTESIAN COORDINATES (A.U.)
----------------------------
  NO LB    ZA    FRAG    MASS        X           Y           Z
   0 B   5.0000    0    10.810  -13.696628    0.970831    0.000000
   1 B   5.0000    0    10.810  -11.308290   -0.939979   -0.000000
   2 B   5.0000    0    10.810   -8.781305    0.871635    0.000000
   3 B   5.0000    0    10.810   -6.210725   -0.914881   -0.000000
   4 B   5.0000    0    10.810   -3.719876    0.944075   -0.000000
   5 B   5.0000    0    10.810   -1.250112   -0.926645    0.000000
   6 B   5.0000    0    10.810    1.250112    0.926645   -0.000000
   7 B   5.0000    0    10.810    3.719877   -0.944075   -0.000000
   8 B   5.0000    0    10.810    6.210725    0.914881   -0.000000
   9 B   5.0000    0    10.810    8.781305   -0.871635    0.000000
  10 B   5.0000    0    10.810   11.308291    0.939979   -0.000000
  11 B   5.0000    0    10.810   13.696628   -0.970831    0.000000

      -----------------------------------------------------------      
     |                   =====================                   |     
     |                           x T B                           |     
     |                   =====================                   |     
     |                         S. Grimme                         |     
     |          Mulliken Center for Theoretical Chemistry        |     
     |                    University of Bonn                     |     
      -----------------------------------------------------------      

   * xtb version 6.6.1 (unknown) compiled by 'builduser@buildhost' on 2023-08-07

   xtb is free software: you can redistribute it and/or modify it under
   the terms of the GNU Lesser General Public License as published by
   the Free Software Foundation, either version 3 of the License, or
   (at your option) any later version.
   
   xtb is distributed in the hope that it will be useful,
   but WITHOUT ANY WARRANTY; without even the implied warranty of
   MERCHANTABILITY or FITNESS FOR A PARTICULAR PURPOSE.  See the
   GNU Lesser General Public License for more details.
   
   Cite this work as:
   * C. Bannwarth, E. Caldeweyher, S. Ehlert, A. Hansen, P. Pracht,
     J. Seibert, S. Spicher, S. Grimme, WIREs Comput. Mol. Sci., 2020, 11,
     e01493. DOI: 10.1002/wcms.1493
   
   for GFN2-xTB:
   * C. Bannwarth, S. Ehlert and S. Grimme., J. Chem. Theory Comput., 2019,
     15, 1652-1671. DOI: 10.1021/acs.jctc.8b01176
   for GFN1-xTB:
   * S. Grimme, C. Bannwarth, P. Shushkov, J. Chem. Theory Comput., 2017,
     13, 1989-2009. DOI: 10.1021/acs.jctc.7b00118
   for GFN0-xTB:
   * P. Pracht, E. Caldeweyher, S. Ehlert, S. Grimme, ChemRxiv, 2019, preprint.
     DOI: 10.26434/chemrxiv.8326202.v1
   for GFN-FF:
   * S. Spicher and S. Grimme, Angew. Chem. Int. Ed., 2020, 59, 15665-15673.
     DOI: 10.1002/anie.202004239
   
   for ALPB and GBSA implicit solvation:
   * S. Ehlert, M. Stahn, S. Spicher, S. Grimme, J. Chem. Theory Comput.,
     2021, 17, 4250-4261. DOI: 10.1021/acs.jctc.1c00471
   
   for DFT-D4:
   * E. Caldeweyher, C. Bannwarth and S. Grimme, J. Chem. Phys., 2017,
     147, 034112. DOI: 10.1063/1.4993215
   * E. Caldeweyher, S. Ehlert, A. Hansen, H. Neugebauer, S. Spicher,
     C. Bannwarth and S. Grimme, J. Chem. Phys., 2019, 150, 154122.
     DOI: 10.1063/1.5090222
   * E. Caldeweyher, J.-M. Mewes, S. Ehlert and S. Grimme, Phys. Chem. Chem. Phys.
     2020, 22, 8499-8512. DOI: 10.1039/D0CP00502A
   
   for sTDA-xTB:
   * S. Grimme and C. Bannwarth, J. Chem. Phys., 2016, 145, 054103.
     DOI: 10.1063/1.4959605
   
   in the mass-spec context:
   * V. Asgeirsson, C. Bauer and S. Grimme, Chem. Sci., 2017, 8, 4879.
     DOI: 10.1039/c7sc00601b
   * J. Koopman and S. Grimme, ACS Omega 2019, 4, 12, 15120-15133.
     DOI: 10.1021/acsomega.9b02011
   
   for metadynamics refer to:
   * S. Grimme, J. Chem. Theory Comput., 2019, 155, 2847-2862
     DOI: 10.1021/acs.jctc.9b00143
   
   for SPH calculations refer to:
   * S. Spicher and S. Grimme, J. Chem. Theory Comput., 2021, 17, 1701-1714
     DOI: 10.1021/acs.jctc.0c01306
   
   with help from (in alphabetical order)
   P. Atkinson, C. Bannwarth, F. Bohle, G. Brandenburg, E. Caldeweyher
   M. Checinski, S. Dohm, S. Ehlert, S. Ehrlich, I. Gerasimov, C. Hölzer
   A. Katbashev, J. Koopman, C. Lavigne, S. Lehtola, F. März, M. Müller,
   F. Musil, H. Neugebauer, J. Pisarek, C. Plett, P. Pracht, F. Pultar,
   J. Seibert, P. Shushkov, S. Spicher, M. Stahn, M. Steiner, T. Strunk,
   J. Stückrath, T. Rose, and J. Unsleber
   
 * started run on 2026/04/17 at 12:14:27.432     

           -------------------------------------------------
          |                Calculation Setup                |
           -------------------------------------------------

          program call               : /usr/bin/xtb zigzag_chain12_d1.50_m1_XTB.xyz --grad -c 0 -u 0 -P 1 --namespace zigzag_chain12_d1.50_m1 --input zigzag_chain12_d1.50_m1_XTB.input.tmp --acc 0.200000
          calculation namespace      : zigzag_chain12_d1.50_m1
          coordinate file            : zigzag_chain12_d1.50_m1_XTB.xyz
          omp threads                :                     1

   ID    Z sym.   atoms
    1    5 B      1-12

           -------------------------------------------------
          |                 G F N 2 - x T B                 |
           -------------------------------------------------

        Reference                      10.1021/acs.jctc.8b01176
      * Hamiltonian:
        H0-scaling (s, p, d)           1.850000    2.230000    2.230000
        zeta-weighting                 0.500000
      * Dispersion:
        s8                             2.700000
        a1                             0.520000
        a2                             5.000000
        s9                             5.000000
      * Repulsion:
        kExp                           1.500000    1.000000
        rExp                           1.000000
      * Coulomb:
        alpha                          2.000000
        third order                    shell-resolved
        anisotropic                    true
        a3                             3.000000
        a5                             4.000000
        cn-shift                       1.200000
        cn-exp                         4.000000
        max-rad                        5.000000

q/qsh data taken from xtbrestart
CAMM data taken from xtbrestart

          ...................................................
          :                      SETUP                      :
          :.................................................:
          :  # basis functions                  48          :
          :  # atomic orbitals                  48          :
          :  # shells                           24          :
          :  # electrons                        36          :
          :  max. iterations                   250          :
          :  Hamiltonian                  GFN2-xTB          :
          :  restarted?                       true          :
          :  GBSA solvation                  false          :
          :  PC potential                    false          :
          :  electronic temp.          300.0000000     K    :
          :  accuracy                    0.2000000          :
          :  -> integral cutoff          0.3198970E+02      :
          :  -> integral neglect         0.2000000E-08      :
          :  -> SCF convergence          0.2000000E-06 Eh   :
          :  -> wf. convergence          0.2000000E-04 e    :
          :  Broyden damping             0.4000000          :
          ...................................................

 iter      E             dE          RMSdq      gap      omega  full diag
   1    -13.7914947 -0.137915E+02  0.657E-01    0.35       0.0  T
   2    -12.0109124  0.178058E+01  0.809E+00    0.38       1.0  T
   3    -13.5020064 -0.149109E+01  0.357E+00    0.25       1.0  T
   4    -13.4872423  0.147641E-01  0.362E+00    0.25       1.0  T
   5    -13.4881062 -0.863935E-03  0.362E+00    0.25       1.0  T
   6    -13.6019362 -0.113830E+00  0.278E+00    0.26       1.0  T
   7    -13.7768375 -0.174901E+00  0.137E+00    0.28       1.0  T
   8    -13.7930884 -0.162509E-01  0.115E+00    0.32       1.0  T
   9    -13.7944077 -0.131934E-02  0.101E+00    0.32       1.0  T
  10    -13.7924920  0.191571E-02  0.978E-01    0.32       1.0  T
  11    -13.7954721 -0.298002E-02  0.828E-01    0.33       1.0  T
  12    -13.7991070 -0.363498E-02  0.517E-01    0.32       1.0  T
  13    -13.7984964  0.610664E-03  0.549E-01    0.32       1.0  T
  14    -13.7982993  0.197061E-03  0.517E-01    0.33       1.0  T
  15    -13.8007047 -0.240542E-02  0.881E-02    0.32       1.0  T
  16    -13.8008389 -0.134180E-03  0.255E-02    0.32       1.1  T
  17    -13.8008473 -0.842677E-05  0.198E-02    0.32       1.5  T
  18    -13.8008464  0.971795E-06  0.175E-02    0.32       1.6  T
  19    -13.8008485 -0.215702E-05  0.994E-03    0.32       2.9  T
  20    -13.8008490 -0.454983E-06  0.751E-03    0.32       3.8  T
  21    -13.8008493 -0.327253E-06  0.620E-03    0.32       4.7  T
  22    -13.8008494 -0.707439E-07  0.500E-03    0.32       5.8  T
  23    -13.8008494 -0.747849E-07  0.416E-03    0.32       6.9  T
  24    -13.8008496 -0.107068E-06  0.175E-03    0.32      16.5  T
  25    -13.8008496 -0.168030E-07  0.340E-04    0.32      85.0  T
  26    -13.8008496 -0.756307E-09  0.185E-04    0.32     156.2  T
  27    -13.8008496 -0.271230E-09  0.472E-05    0.32     611.8  T

   *** convergence criteria satisfied after 27 iterations ***

         #    Occupation            Energy/Eh            Energy/eV
      -------------------------------------------------------------
         1        2.0000           -0.4168019             -11.3418
       ...           ...                  ...                  ...
        12        2.0000           -0.2778990              -7.5620
        13        2.0000           -0.2764782              -7.5234
        14        2.0000           -0.2741689              -7.4605
        15        2.0000           -0.2630794              -7.1588
        16        1.9998           -0.2438519              -6.6355
        17        1.9980           -0.2416417              -6.5754
        18        1.9969           -0.2412299              -6.5642 (HOMO)
        19        0.0054           -0.2294745              -6.2443 (LUMO)
        20        0.0000           -0.2233555              -6.0778
        21        0.0000           -0.2203541              -5.9961
        22                         -0.2103579              -5.7241
        23                         -0.2023834              -5.5071
       ...                                ...                  ...
        48                          0.7010477              19.0765
      -------------------------------------------------------------
                  HL-Gap            0.0117554 Eh            0.3199 eV
             Fermi-level           -0.2350971 Eh           -6.3973 eV

 SCC (total)                   0 d,  0 h,  0 min,  0.039 sec
 SCC setup                      ...        0 min,  0.000 sec (  0.379%)
 Dispersion                     ...        0 min,  0.000 sec (  0.300%)
 classical contributions        ...        0 min,  0.000 sec (  0.074%)
 integral evaluation            ...        0 min,  0.003 sec (  6.538%)
 iterations                     ...        0 min,  0.031 sec ( 79.043%)
 molecular gradient             ...        0 min,  0.005 sec ( 12.874%)
 printout                       ...        0 min,  0.000 sec (  0.741%)

         :::::::::::::::::::::::::::::::::::::::::::::::::::::
         ::                     SUMMARY                     ::
         :::::::::::::::::::::::::::::::::::::::::::::::::::::
         :: total energy             -13.699723707359 Eh    ::
         :: gradient norm              0.329331109629 Eh/a0 ::
         :: HOMO-LUMO gap              0.319880460078 eV    ::
         ::.................................................::
         :: SCC energy               -13.800849571847 Eh    ::
         :: -> isotropic ES            0.101162439294 Eh    ::
         :: -> anisotropic ES          0.003077077794 Eh    ::
         :: -> anisotropic XC         -0.037156382415 Eh    ::
         :: -> dispersion             -0.010621144872 Eh    ::
         :: repulsion energy           0.101304256241 Eh    ::
         :: add. restraining           0.000000000000 Eh    ::
         :: total charge               0.000000001308 e     ::
         :::::::::::::::::::::::::::::::::::::::::::::::::::::


Property printout bound to 'properties.out'

           -------------------------------------------------
          | TOTAL ENERGY              -13.699723707359 Eh   |
          | GRADIENT NORM               0.329331109629 Eh/α |
          | HOMO-LUMO GAP               0.319880460078 eV   |
           -------------------------------------------------

------------------------------------------------------------------------
 * finished run on 2026/04/17 at 12:14:27.484     
------------------------------------------------------------------------
 total:
 * wall-time:     0 d,  0 h,  0 min,  0.051 sec
 *  cpu-time:     0 d,  0 h,  0 min,  0.051 sec
 * ratio c/w:     0.999 speedup
 SCF:
 * wall-time:     0 d,  0 h,  0 min,  0.039 sec
 *  cpu-time:     0 d,  0 h,  0 min,  0.039 sec
 * ratio c/w:     1.000 speedup


-------------------------   --------------------
FINAL SINGLE POINT ENERGY       -13.699723707360
-------------------------   --------------------


-------------
DIPOLE MOMENT
-------------
                                X             Y             Z
Total Dipole Moment    :     -0.00000      -0.00000      -0.00000
                        -----------------------------------------
Magnitude (a.u.)       :      0.00000
Magnitude (Debye)      :      0.00000


------------------
CARTESIAN GRADIENT
------------------

   1   B   :   -0.069058122    0.055300125    0.000000000
   2   B   :    0.024143286   -0.102724364   -0.000000000
   3   B   :    0.013332443    0.097083888    0.000000000
   4   B   :   -0.014360731   -0.097360056   -0.000000000
   5   B   :   -0.007624075    0.091902915   -0.000000000
   6   B   :    0.005937015   -0.086251977    0.000000000
   7   B   :   -0.005937046    0.086251973   -0.000000000
   8   B   :    0.007624149   -0.091902903    0.000000000
   9   B   :    0.014360704    0.097360065   -0.000000000
  10   B   :   -0.013332472   -0.097083919    0.000000000
  11   B   :   -0.024143237    0.102724361   -0.000000000
  12   B   :    0.069058085   -0.055300107    0.000000000

Difference to translation invariance:
[...]
          :  GBSA solvation                  false          :
          :  PC potential                    false          :
          :  electronic temp.          300.0000000     K    :
          :  accuracy                    0.2000000          :
          :  -> integral cutoff          0.3198970E+02      :
          :  -> integral neglect         0.2000000E-08      :
          :  -> SCF convergence          0.2000000E-06 Eh   :
          :  -> wf. convergence          0.2000000E-04 e    :
          :  Broyden damping             0.4000000          :
          ...................................................

 iter      E             dE          RMSdq      gap      omega  full diag
   1    -14.4083077 -0.144083E+02  0.162E+00    0.64       0.0  T
   2    -14.4078190  0.488729E-03  0.101E+00    0.62       1.0  T
   3    -14.3725566  0.352624E-01  0.124E+00    0.67       1.0  T
   4    -14.4076562 -0.350996E-01  0.198E-01    0.66       1.0  T
   5    -14.4084202 -0.763930E-03  0.399E-02    0.64       1.0  T
   6    -14.4084224 -0.219306E-05  0.359E-02    0.63       1.0  T
   7    -14.4084368 -0.143915E-04  0.149E-02    0.64       1.9  T
   8    -14.4084262  0.105252E-04  0.242E-02    0.64       1.2  T
   9    -14.4084391 -0.128976E-04  0.379E-03    0.64       7.6  T
  10    -14.4084393 -0.181336E-06  0.241E-03    0.64      12.0  T
  11    -14.4084394 -0.113081E-06  0.711E-04    0.64      40.6  T
  12    -14.4084394 -0.125748E-08  0.507E-04    0.64      57.0  T
  13    -14.4084394  0.248819E-08  0.528E-04    0.64      54.7  T
  14    -14.4084394 -0.628405E-08  0.103E-04    0.64     280.8  T
  15    -14.4084394 -0.101018E-09  0.661E-05    0.64     437.0  T

   *** convergence criteria satisfied after 15 iterations ***

         #    Occupation            Energy/Eh            Energy/eV
      -------------------------------------------------------------
         1        2.0000           -0.4097014             -11.1485
       ...           ...                  ...                  ...
        12        2.0000           -0.2854241              -7.7668
        13        2.0000           -0.2817671              -7.6673
        14        2.0000           -0.2738586              -7.4521
        15        2.0000           -0.2717954              -7.3959
        16        2.0000           -0.2672655              -7.2727
        17        2.0000           -0.2514210              -6.8415
        18        2.0000           -0.2438876              -6.6365 (HOMO)
        19        0.0000           -0.2205047              -6.0002 (LUMO)
        20                         -0.1870724              -5.0905
        21                         -0.1866589              -5.0792
        22                         -0.1790096              -4.8711
        23                         -0.1730461              -4.7088
       ...                                ...                  ...
        48                          1.2816690              34.8760
      -------------------------------------------------------------
                  HL-Gap            0.0233829 Eh            0.6363 eV
             Fermi-level           -0.2321960 Eh           -6.3184 eV

 SCC (total)                   0 d,  0 h,  0 min,  0.023 sec
 SCC setup                      ...        0 min,  0.000 sec (  0.627%)
 Dispersion                     ...        0 min,  0.000 sec (  0.399%)
 classical contributions        ...        0 min,  0.000 sec (  0.159%)
 integral evaluation            ...        0 min,  0.003 sec ( 10.876%)
 iterations                     ...        0 min,  0.015 sec ( 66.311%)
 molecular gradient             ...        0 min,  0.005 sec ( 19.619%)
 printout                       ...        0 min,  0.000 sec (  1.902%)

         :::::::::::::::::::::::::::::::::::::::::::::::::::::
         ::                     SUMMARY                     ::
         :::::::::::::::::::::::::::::::::::::::::::::::::::::
         :: total energy             -14.139581280948 Eh    ::
         :: gradient norm              0.008274132225 Eh/a0 ::
         :: HOMO-LUMO gap              0.636280292076 eV    ::
         ::.................................................::
         :: SCC energy               -14.408439425669 Eh    ::
         :: -> isotropic ES            0.105002211816 Eh    ::
         :: -> anisotropic ES          0.002147612086 Eh    ::
         :: -> anisotropic XC         -0.033810255333 Eh    ::
         :: -> dispersion             -0.007553039915 Eh    ::
         :: repulsion energy           0.268915175349 Eh    ::
         :: add. restraining           0.000000000000 Eh    ::
         :: total charge               0.000000000000 e     ::
         :::::::::::::::::::::::::::::::::::::::::::::::::::::


Property printout bound to 'properties.out'

           -------------------------------------------------
          | TOTAL ENERGY              -14.139581280948 Eh   |
          | GRADIENT NORM               0.008274132225 Eh/α |
          | HOMO-LUMO GAP               0.636280292076 eV   |
           -------------------------------------------------

------------------------------------------------------------------------
 * finished run on 2026/04/17 at 12:14:30.149     
------------------------------------------------------------------------
 total:
 * wall-time:     0 d,  0 h,  0 min,  0.035 sec
 *  cpu-time:     0 d,  0 h,  0 min,  0.035 sec
 * ratio c/w:     0.999 speedup
 SCF:
 * wall-time:     0 d,  0 h,  0 min,  0.023 sec
 *  cpu-time:     0 d,  0 h,  0 min,  0.023 sec
 * ratio c/w:     0.999 speedup


-------------------------   --------------------
FINAL SINGLE POINT ENERGY       -14.139581280950
-------------------------   --------------------


-------------
DIPOLE MOMENT
-------------
                                X             Y             Z
Total Dipole Moment    :     -0.02900       0.01600      -0.01500
                        -----------------------------------------
Magnitude (a.u.)       :      0.03636
Magnitude (Debye)      :      0.09242


------------------
CARTESIAN GRADIENT
------------------

   1   B   :    0.001527288   -0.000902077   -0.000992702
   2   B   :    0.000012135   -0.000216244   -0.000141631
   3   B   :   -0.001340942    0.002850626    0.001297706
   4   B   :    0.001783422   -0.001205874   -0.001140713
   5   B   :   -0.003384860    0.000247202   -0.000198266
   6   B   :    0.000205827   -0.000548536    0.000544393
   7   B   :    0.001379808   -0.000461980    0.001734235
   8   B   :    0.002725262    0.001885531   -0.000569882
   9   B   :   -0.002446615   -0.001439943   -0.001151427
  10   B   :    0.000531864   -0.000878855    0.000179870
  11   B   :    0.000097487    0.001966897    0.000840047
  12   B   :   -0.001090676   -0.001296748   -0.000401630

Difference to translation invariance:
           :    0.0000000000    0.0000000000    0.0000000000

Difference to rotation invariance:
           :   -0.0000000148    0.0000000201   -0.0000000078

Norm of the Cartesian gradient     ...    0.0082741322
RMS gradient                       ...    0.0013790220
MAX gradient                       ...    0.0033848602
------------------------------------------------------------------------------
                         ORCA GEOMETRY RELAXATION STEP
------------------------------------------------------------------------------

Reading the OPT-File                    .... done
Getting information on internals        .... done
Copying old internal coords+grads       .... done
Making the new internal coordinates     .... (2022 redundants) done
Validating the new internal coordinates .... (2022 redundants) done
Calculating the B-matrix                .... done
Calculating the G,G- and P matrices     .... done
Transforming gradient to internals      .... done
Projecting the internal gradient        .... done
Number of atoms                         ....  12
Number of internal coordinates          ....  42
Current Energy                          ....   -14.139581281 Eh
Current gradient norm                   ....     0.008274132 Eh/bohr
Maximum allowed component of the step   ....  0.300
Current trust radius                    ....  0.467
Updating the Hessian (BFGS)             .... done
Forming the augmented Hessian           .... done
Diagonalizing the augmented Hessian     .... done
Last element of RFO vector              ....  0.855611184
Lowest eigenvalues of augmented Hessian:
 -0.001277503  0.000125971  0.000257197  0.000793500  0.001617572
Length of the computed step             ....  0.604969967
Warning: the length of the step is outside the trust region - taking restricted step instead
The input lambda is                     ....    -0.000940
   iter:   5  x=   -0.001819  g=  172.668750 f(x)=     0.000041
The output lambda is                    ....    -0.001819 (7 iterations)
The final length of the internal step   ....  0.466666667
Converting the step to Cartesian space:
 Initial RMS(Int)=    0.0720082300
Transforming coordinates:
 Iter   0:  RMS(Cart)=    0.1093289023 RMS(Int)=    1.3490391052
 Iter   5:  RMS(Cart)=    0.0000476886 RMS(Int)=    0.0000515121
 Iter  10:  RMS(Cart)=    0.0000000653 RMS(Int)=    0.0000000764
done
Storing new coordinates                 .... done
The predicted energy change is          ....    -0.000760814
Previously predicted energy change      ....     0.805112241
Actually observed energy change         ....    -0.000281268
Ratio of predicted to observed change   ....     0.000349352
New trust radius                        ....     0.311111111

                                .--------------------.
          ----------------------|Geometry convergence|-------------------------
          Item                value                   Tolerance       Converged
          ---------------------------------------------------------------------
          Energy change      -0.0002812677            0.0000010000      NO
          RMS gradient        0.0012086328            0.0000300000      NO
          MAX gradient        0.0031752843            0.0001000000      NO
          RMS step            0.0720082300            0.0006000000      NO
          MAX step            0.2585605562            0.0010000000      NO
          -------------------------------------------------------------------------
          ........................................................
          Max(Bonds)      0.0162      Max(Angles)    3.35
          Max(Dihed)       14.81      Max(Improp)    0.00
          ---------------------------------------------------------------------

The optimization has not yet converged - more geometry cycles are needed


    ---------------------------------------------------------------------------
                         Redundant Internal Coordinates
                            (Angstroem and degrees)

        Definition                    Value    dE/dq     Step     New-Value
    ----------------------------------------------------------------------------
     1. B(B   1,B   0)                1.4319 -0.000239  0.0005    1.4324   
     2. B(B   2,B   1)                1.5939 -0.000093  0.0003    1.5943   
     3. B(B   2,B   0)                1.5819 -0.001471  0.0150    1.5969   
     4. B(B   3,B   2)                1.5854 -0.000246  0.0121    1.5976   
     5. B(B   4,B   3)                1.5717 -0.002087  0.0129    1.5846   
     6. B(B   5,B   4)                1.7441  0.001341 -0.0106    1.7335   
     7. B(B   6,B   5)                2.0001  0.000512  0.0119    2.0120   
     8. B(B   7,B   6)                1.7369 -0.000762  0.0108    1.7477   
     9. B(B   8,B   7)                1.5680 -0.003072  0.0162    1.5843   
    10. B(B   9,B   8)                1.5853 -0.000572 -0.0078    1.5775   
    11. B(B  10,B   9)                1.5920  0.000116 -0.0008    1.5912   
    12. B(B  11,B  10)                1.4346  0.001423 -0.0089    1.4257   
    13. B(B  11,B   9)                1.5841 -0.000816 -0.0021    1.5820   
    14. A(B   1,B   0,B   2)           63.63  0.000370   -0.21     63.42   
    15. A(B   0,B   1,B   2)           62.77 -0.000540    0.35     63.12   
    16. A(B   0,B   2,B   1)           53.60  0.000171   -0.15     53.45   
    17. A(B   0,B   2,B   3)          157.65  0.000774   -3.35    154.30   
    18. A(B   1,B   2,B   3)          148.65 -0.000955    2.51    151.16   
    19. A(B   2,B   3,B   4)          147.66 -0.002504   -0.35    147.31   
    20. A(B   3,B   4,B   5)           58.46  0.001382   -0.03     58.43   
    21. A(B   4,B   5,B   6)           47.68  0.003175   -0.13     47.55   
    22. A(B   5,B   6,B   7)           47.70  0.001600   -0.49     47.21   
    23. A(B   6,B   7,B   8)           58.51 -0.001969   -1.02     57.49   
    24. A(B   7,B   8,B   9)          149.12 -0.000140   -1.96    147.16   
    25. A(B  10,B   9,B  11)           53.70  0.000648   -0.16     53.54   
    26. A(B   8,B   9,B  11)          156.12 -0.000149    0.66    156.78   
    27. A(B   8,B   9,B  10)          150.18 -0.000498   -0.31    149.87   
    28. A(B   9,B  10,B  11)           62.87 -0.000627   -0.08     62.78   
    29. A(B   9,B  11,B  10)           63.43 -0.000021    0.24     63.67   
    30. D(B   3,B   2,B   1,B   0)    176.84 -0.000080   12.03    188.88   
    31. D(B   3,B   2,B   0,B   1)   -175.68  0.000371   -2.22   -177.90   
    32. D(B   4,B   3,B   2,B   0)    -84.63 -0.000474    8.20    -76.43   
    33. D(B   4,B   3,B   2,B   1)    102.07 -0.000067   -4.92     97.14   
    34. D(B   5,B   4,B   3,B   2)    159.68 -0.000521    1.94    161.62   
    35. D(B   6,B   5,B   4,B   3)   -174.83 -0.001233    2.21   -172.62   
    36. D(B   7,B   6,B   5,B   4)    179.19  0.000821   -1.23    177.95   
    37. D(B   8,B   7,B   6,B   5)    168.98 -0.001770    1.55    170.54   
    38. D(B   9,B   8,B   7,B   6)   -159.63 -0.002101    6.23   -153.41   
    39. D(B  11,B   9,B   8,B   7)     55.01 -0.000702   10.07     65.08   
    40. D(B  10,B   9,B   8,B   7)   -123.40 -0.000951   14.81   -108.59   
    41. D(B  11,B  10,B   9,B   8)    179.20  0.000127   -7.35    171.85   
    42. D(B  10,B  11,B   9,B   8)   -179.02 -0.000147   -2.90   -181.92   
    ----------------------------------------------------------------------------

Geometry step timings:
Preparation and reading OPT file:      0.000 s ( 1.860 %)
Internal coordinates            :      0.000 s ( 1.535 %)
B/P matrices and projection     :      0.000 s (18.419 %)
Hessian update/contruction      :      0.000 s (21.953 %)
Making the step                 :      0.001 s (26.977 %)
Converting the step to Cartesian:      0.000 s ( 3.535 %)
Storing new data                :      0.000 s ( 4.837 %)
Checking convergence            :      0.000 s ( 2.651 %)
Final printing                  :      0.000 s (18.233 %)
Total time                      :      0.002 s

Time for energy+gradient        :      0.055 s
Time for complete geometry iter :      0.058 s




    ----------------------------------------------------------------------------
                                  WARNING !!!
       The optimization did not converge but reached the maximum number of
       optimization cycles.
       Please check your results very carefully.
    ----------------------------------------------------------------------------



--------------------------------
SUGGESTED CITATIONS FOR THIS RUN
--------------------------------

Below you find a list of papers that are relevant to this ORCA run
We neither can nor want to force you to cite these papers, but we appreciate if you do
You receive ORCA, which is the product of decades of hard work by many enthusiastic individuals, for free
The only thing we kindly ask in return is that you cite our papers,
We deeply appreciate it, if you show your appreciation for ORCA by not just citing the generic ORCA reference.

Please note that relegating all ORCA citations to the supporting information does *not* help us.
SI sections are not indexed - citations you put there will not count into any citation statistics
But we need these citations in order to attract the funding resources that allow us to do what we are doing

Therefore, if you are a happy ORCA user, please consider citing a few of the papers listed below in the main body of your paper

In addition to the list printed below, the program has created the file zigzag_chain12_d1.50_m1.bibtex that contains the list in bibtex format
You can import this file easily into all common literature databanks and citation aid programs

It goes without saying that in many instances, there are alternative algorithms to achieve similar
results as the ones you have gotten from ORCA. It is, of course, also the case that in some instances
ORCA just re-implements algorithms worked out by others. We are fully aware of that and we are also
fully appreciative of our colleagues work. Hence this citation list should not be read as indicating
that the listed papers, which are focused on our own work, are the only ones worth citing. It simply
meant to make it easier for users to cite ORCA specific papers. It is not a substitute for doing your
own literature research and citing the relevant literature in a scientifically appropriate manner.

List of essential papers. We consider these as the minimum necessary citations

  1. Bannwarth, C.; Ehlert, S.; Grimme, S.
     GFN2-xTB—An Accurate and Broadly Parametrized Self-Consistent Tight-Binding Quantum Chemical Method with Multipole Electrostatics and Density-Dependent Dispersion Contributions
     J. Chem. Theory Comput. 2019 15(3), 1652-1671
     doi.org/10.1021/acs.jctc.8b01176
  2. Neese, F.
     Software update: the ORCA program system, version 6.0
     WIRES Comput. Molec. Sci. 2025 15(1), e70019
     doi.org/10.1002/wcms.70019

List of papers to cite with high priority. The work reported in these papers was absolutely
necessary for this run to complete.
Our perspective: the developers of density functionals and basis sets usually get cited in chemistry papers
Good! But without the algorithms to do something with them, the functionals or basis sets would not do anything.
Hence, in our opinion, the algorithm design and method developments papers are equally worthy of getting cited

  1. Bannwarth, C.; Caldeweyher, E.; Ehlert, S.; Hansen, A.; Pracht, P.; Seibert, J.; Spicher, S.; Grimme, S.
     Extended tight-binding quantum chemistry methods
     WIRES Comput. Molec. Sci. 2020 11(2), e1493
     doi.org/10.1002/wcms.1493

List of suggested additional citations. These are papers that are important in the 'surrounding' of 
of this run, or papers that preceded the highly important papers. If you like your results we are grateful for a citation.

  1. Neese, F.
     The ORCA program system
     WIRES Comput. Molec. Sci. 2012 2(1), 73-78
     doi.org/10.1002/wcms.81
  2. Neese, F.
     Software update: the ORCA program system, version 4.0
     WIRES Comput. Molec. Sci. 2018 8(1), 1-6
     doi.org/10.1002/wcms.1327
  3. Neese, F.; Wennmohs, F.; Becker, U.; Riplinger, C.
     The ORCA quantum chemistry program package
     J. Chem. Phys. 2020 152(22), 224108
     doi.org/10.1063/5.0004608
  4. Neese, F.
     Software update: The ORCA program system—Version 5.0
     WIRES Comput. Molec. Sci. 2022 12(1), e1606
     doi.org/10.1002/wcms.1606

List of optional additional citations

  1. Neese, F.
     Approximate second-order SCF convergence for spin unrestricted wavefunctions
     Chem. Phys. Lett. 2000 325(1-3), 93-98
     doi.org/10.1016/s0009-2614(00)00662-x

Timings for individual modules:

Sum of individual times          ...        2.515 sec (=   0.042 min)
Geometry relaxation              ...        0.151 sec (=   0.003 min)   6.0 %
XTB module                       ...        2.364 sec (=   0.039 min)  94.0 %
                             ****ORCA TERMINATED NORMALLY****
TOTAL RUN TIME: 0 days 0 hours 0 minutes 3 seconds 100 msec
