
                                 *****************
                                 * O   R   C   A *
                                 *****************

                                            #,                                       
                                            ###                                      
                                            ####                                     
                                            #####                                    
                                            ######                                   
                                           ########,                                 
                                     ,,################,,,,,                         
                               ,,#################################,,                 
                          ,,##########################################,,             
                       ,#########################################, ''#####,          
                    ,#############################################,,   '####,        
                  ,##################################################,,,,####,       
                ,###########''''           ''''###############################       
              ,#####''   ,,,,##########,,,,          '''####'''          '####       
            ,##' ,,,,###########################,,,                        '##       
           ' ,,###''''                  '''############,,,                           
         ,,##''                                '''############,,,,        ,,,,,,###''
      ,#''                                            '''#######################'''  
     '                                                          ''''####''''         
             ,#######,   #######,   ,#######,      ##                                
            ,#'     '#,  ##    ##  ,#'     '#,    #''#        ,####,    ,#,          
            ##       ##  ##   ,#'  ##            #'  '#       #'       ,# #          
            ##       ##  #######   ##           ,######,      #####,      #          
            '#,     ,#'  ##    ##  '#,     ,#' ,#      #,     #,   #      #          
             '#######'   ##     ##  '#######'  #'      '#     '####' #    #          



                #########################################################
                #                        -***-                          #
                #          Department of theory and spectroscopy        #
                #                                                       #
                #                      Frank Neese                      #
                #                                                       #
                #     Directorship, Architecture, Infrastructure        #
                #                    SHARK, DRIVERS                     #
                #        Core code/Algorithms in most modules           #
                #                                                       #
                #        Max Planck Institute fuer Kohlenforschung      #
                #                Kaiser Wilhelm Platz 1                 #
                #                 D-45470 Muelheim/Ruhr                 #
                #                      Germany                          #
                #                                                       #
                #                  All rights reserved                  #
                #                        -***-                          #
                #########################################################


                         Program Version 6.1.1  -  RELEASE   -
                                (GIT: $487d211c$)
                          ($2025-11-21 10:33:24 +0100$)
                                                                         
                                  - NO-DMRG VERSION -                    
                                                                         


 With contributions from (in alphabetic order):
[Max-Planck-Institut fuer Kohlenforschung]                               
  Daniel Aravena         : Magnetic Suceptibility                        
  Michael Atanasov       : Ab Initio Ligand Field Theory (pilot matlab implementation)
  Alexander A. Auer      : GIAO ZORA, VPT2 properties, NMR spectrum      
  Ute Becker             : All parallelization in ORCA, NUMFREQ, NUMCALC 
  Giovanni Bistoni       : ED, misc. LED, open-shell LED, HFLD           
  Dmytro Bykov           : pre 5.0 version of the SCF Hessian            
  Marcos Casanova-Páez   : Triplet and SCS-CIS(D). UHF-(DLPNO)-IP/EA/STEOM-CCSD. UHF-CVS-IP/STEOM-CCSD   
  Vijay G. Chilkuri      : MRCI spin determinant printing, contributions to CSF-ICE 
  Pauline Colinet        : FMM embedding                                 
  Dipayan Datta          : RHF DLPNO-CCSD density                        
  Achintya Kumar Dutta   : EOM-CC, STEOM-CC                              
  Nicolas Foglia         : Exact transition moments, OPA infrastructure, MCD improvements    
  Dmitry Ganyushin       : Spin-Orbit,Spin-Spin,Magnetic field MRCI      
  Miquel Garcia-Rates    : C-PCM and meta-GGA Hessian, CCSD/C-PCM, Gaussian charge scheme 
  Tiago L. C. Gouveia    : GS-ROHF, GS-ROCIS                             
  Yang Guo               : DLPNO-NEVPT2, F12-NEVPT2, CIM, IAO-localization        
  Andreas Hansen         : Spin unrestricted coupled pair/coupled cluster methods 
  Ingolf Harden          : AUTO-CI MPn and infrastructure                
  Benjamin Helmich-Paris : MC-RPA, TRAH-(SCF,CASSCF), AVAS, COSX integrals, SCF dyn. polar., MC-PDFT, srDFT 
  Lee Huntington         : MR-EOM, pCC                                   
  Robert Izsak           : Overlap fitted RIJCOSX, COSX-SCS-MP3, EOM     
  Riya Kayal             : Wick's Theorem for AUTO-CI, AUTO-CI UHF-CCSDT 
  Emily Kempfer          : AUTO-CI RHF CISDT and CCSDT, approximate NEVPT4
  Christian Kollmar      : KDIIS, OOCD, Brueckner-CCSD(T), CCSD density, CASPT2, CASPT2-K, improved NEVPT2 
  Axel Koslowski         : Symmetry handling                             
  Simone Kossmann        : meta-GGA functionals, TD-DFT gradient, OOMP2, (MP2 Hessian; deprecated post 5.0) 
  Lucas Lang             : DCDCAS, Hyperfine gauge corrections, ICE-SOC+SSC
  Marvin Lechner         : AUTO-CI (C++ implementation), FIC-MRCC        
  Spencer Leger          : CASSCF response                               
  Dagmar Lenk            : GEPOL surface, SMD, ORCA-2-JSON               
  Dimitrios Liakos       : Extrapolation schemes; Compound Job, Property file
  Dimitrios Manganas     : Further ROCIS development; embedding schemes. LFT, Crystal Embedding 
  Dimitrios Pantazis     : SARC Basis sets                               
  Anastasios Papadopoulos: AUTO-CI, single reference methods and gradients 
  Taras Petrenko         : pre 6.0 DFT Hessian and TD-DFT gradient,  ECA, NRVS 
  Petra Pikulova         : Analytic Raman intensities                    
  Peter Pinski           : DLPNO-MP2, DLPNO-MP2 Gradient                 
  Shashank Vittal Rao    : ES-AILFT, MagRelax                            
  Christoph Reimann      : Effective Core Potentials                     
  Marius Retegan         : Local ZFS, SOC                                
  Christoph Riplinger    : Optimizer, TS searches, QM/MM, DLPNO-CCSD(T), (RO)-DLPNO pert. Triples 
  Michael Roemelt        : Original ROCIS implementation, recursive CI coupling coefficients
  Masaaki Saitow         : Open-shell DLPNO-CCSD energy and density      
  Barbara Sandhoefer     : DKH picture change effects                    
  Yorick L. A. Schmerwitz: GMF and freeze-and-release deltaSCF, NEB S-IDPP initial path                    
  Kantharuban Sivalingam : CASSCF convergence/infrastructure, NEVPT2, NEVPT3, NEVPT4(SD), FIC-MRCI and CEPA variants
  Bernardo de Souza      : ESD, SOC TD-DFT                               
  Georgi L. Stoychev     : AutoAux, RI-MP2 NMR, DLPNO-MP2 response, X2C  
  Van Anh Tran           : RI-MP2 g-tensors                              
  Willem Van den Heuvel  : Paramagnetic NMR                              
  Zikuan Wang            : NOTCH, Electric field optimization            
  Frank Wennmohs         : Technical directorship and infrastructure     
  Hang Xu                : AUTO-CI-Response properties                   
                                                                         
[FACCTs GmbH]                                                            
  Markus Bursch, Nicolas Foglia, Miquel Garcia-Rates, Ingolf Harden, Hagen Neugebauer, Anastasios Papadopoulos, 
  Christoph Riplinger, Bernardo de Souza, Georgi L. Stoychev                                                    
                                                                 
  APM, various basis sets, CI-OPT, improved COSX, DLPNO-Multilevel,           
  DOCKER, DRACO, updates on ESD, Fragmentator, GOAT, IRC, LR-CPCM, L-BFGS, MBIS, meta-GGA TD-DFT gradient, ML-optimized integration grids, 
  MM, NACMEs, nearIR, NEB, NEB-TS, NL-DFT gradient (VV10), 2- and 3-layer-ONIOM, interface openCOSMO-RS, QMMM,   
  Crystal-QMMM, RESP, rigid body optimization, SF, symmetry and pop. for TD-DFT, various functionals, SOLVATOR                                   
                                                                         
[Other institutions]                                                     
  V. Asgeirsson          : NEB                                           
  Christoph Bannwarth    : sTDA-DFT, sTD-DFT, PBEh-3c, B97-3c, D3        
  Giovanni Bistoni       : ETS/NOCV, ADLD/ADEX, COVALED                  
  Martin Brehm           : Molecular dynamics                            
  Ronald Cardenas        : ETS/NOCV                                      
  Martina Colucci        : COVALED                                       
  Sebastian Ehlert       : rSCAN, r2SCAN, r2SCAN-3c, D4, dhf basis sets  
  Marvin Friede          : D4 for Fr, Ra, Ac-Lr                          
  Lars Goerigk           : TD-DFT with DH, B97 family of functionals     
  Stefan Grimme          : VdW corrections, initial TS optimization, DFT functionals, gCP, sTDA/sTD-DF 
  Waldemar Hujo          : DFT-NL                                        
  H. Jonsson             : NEB                                           
  Holger Kruse           : gCP                                           
  Marcel Mueller         : wB97X-3c, vDZP basis set                      
  Hagen Neugebauer       : wr2SCAN, Native XTB                           
  Gianluca Regni         : ADLD/ADEX                                     
  Tobias Risthaus        : pre 6.0 range-separated hybrid DFT and stability analysis
  Lukas Wittmann         : regularized MP2, r2SCAN double-hybrids, wr2SCAN        
                                                                         
We gratefully acknowledge several colleagues who have allowed us to      
interface, adapt or use parts of their codes:                            
  Ed Valeev, F. Pavosevic, A. Kumar             : LibInt (2-el integral package), F12 methods 
  Garnet Chan, S. Sharma, J. Yang, R. Olivares  : DMRG                   
  Ulf Ekstrom                                   : XCFun DFT Library      
  Mihaly Kallay                                 : mrcc  (arbitrary order and MRCC methods)
  Frank Weinhold                                : gennbo (NPA and NBO analysis)           
  Simon Mueller                                 : openCOSMO-RS                            
  Christopher J. Cramer and Donald G. Truhlar   : smd solvation model                     
  S Lehtola, MJT Oliveira, MAL Marques          : LibXC Library                           
  Liviu Ungur et al                             : ANISO software                          


 Your calculation uses the libint2 library for the computation of 2-el integrals
 For citations please refer to: http://libint.valeyev.net

 Your ORCA version has been built with support for libXC version: 7.0.0
 For citations please refer to: https://libxc.gitlab.io

 This ORCA versions uses:
   CBLAS   interface :  Fast vector & matrix operations
   LAPACKE interface :  Fast linear algebra routines
   SCALAPACK package :  Parallel linear algebra routines
   Shared memory     :  Shared parallel matrices
   BLAS/LAPACK       :  OpenBLAS 0.3.29  USE64BITINT DYNAMIC_ARCH NO_AFFINITY Zen SINGLE_THREADED
        Core in use  :  Zen
   Copyright (c) 2011-2014, The OpenBLAS Project


  ***********************************
  * Starting time: Fri Apr 17 12:14:27 2026
  * Host name:     vmi3233575
  * Process ID:    335307
  * Working dir.:  /root/orca_b12_vps_pack/jobs/01_xtb/mult_1
  ***********************************

NOTE: MaxCore=500 MB was set to SCF,MP2,MDCI,CIPSI,MRCI,RASCI and CIS
      => If you want to overwrite this, your respective input block should be placed after the MaxCore statement


***************************************
The coordinates will be read from file: ../../../starts/zigzag_chain12_d1.70.xyz
***************************************


Your calculation utilizes the semiempirical GFN2-xTB method
Please cite in your paper:
Bannwarth, C.; Ehlert S.; Grimme, S. J. Chem. Theory Comput. 2019, 15, 1652.
   

================================================================================

================================================================================
                                        WARNINGS
                       Please study these warnings very carefully!
================================================================================


WARNING: Geometry Optimization
  ===> : Switching off AutoStart
         For restart on a previous wavefunction, please use MOREAD

WARNING: Found dipole moment calculation with XTB calculation
  ===> : Switching off dipole moment calculation

Environment variable XTBEXE for xtb has been set!

================================================================================
                                       INPUT FILE
================================================================================
NAME = zigzag_chain12_d1.70_m1.inp
|  1> ! GFN2-xTB TightSCF TightOpt
|  2> 
|  3> %pal
|  4>   nprocs 1
|  5> end
|  6> 
|  7> %maxcore 500
|  8> 
|  9> * xyzfile 0 1 ../../../starts/zigzag_chain12_d1.70.xyz
| 10> 
| 11>                          ****END OF INPUT****
================================================================================

                       *****************************
                       * Geometry Optimization Run *
                       *****************************

Geometry optimization settings:
Update method            Update   .... BFGS
Choice of coordinates    CoordSys .... (2022) Redundant Internals
Initial Hessian          InHess   .... Almloef's Model
Max. no of cycles        MaxIter  .... 50

Convergence Tolerances:
Energy Change            TolE     ....  1.0000e-06 Eh
Max. Gradient            TolMAXG  ....  1.0000e-04 Eh/bohr
RMS Gradient             TolRMSG  ....  3.0000e-05 Eh/bohr
Max. Displacement        TolMAXD  ....  1.0000e-03 bohr
RMS Displacement         TolRMSD  ....  6.0000e-04 bohr
Strict Convergence                .... False

------------------------------------------------------------------------------
                        ORCA OPTIMIZATION COORDINATE SETUP
------------------------------------------------------------------------------

The optimization will be done in redundant internal coordinates (2022)
Making redundant internal coordinates   ...  (2022 redundants) done
Evaluating the initial hessian          ...  (Almloef) done
Evaluating the coordinates              ...  done
Calculating the B-matrix                .... done
Calculating the G-matrix                .... done
The number of degrees of freedom        ....   30

    -----------------------------------------------------------------
                    Redundant Internal Coordinates


    -----------------------------------------------------------------
         Definition                    Initial Value    Approx d2E/dq
    -----------------------------------------------------------------
      1. B(B   1,B   0)                  1.9652         0.101299   
      2. B(B   2,B   1)                  1.9652         0.101299   
      3. B(B   3,B   2)                  1.9652         0.101299   
      4. B(B   4,B   3)                  1.9652         0.101299   
      5. B(B   5,B   4)                  1.9652         0.101299   
      6. B(B   6,B   5)                  1.9652         0.101299   
      7. B(B   7,B   6)                  1.9652         0.101299   
      8. B(B   8,B   7)                  1.9652         0.101299   
      9. B(B   9,B   8)                  1.9652         0.101299   
     10. B(B  10,B   9)                  1.9652         0.101299   
     11. B(B  11,B  10)                  1.9652         0.101299   
     12. A(B   0,B   1,B   2)          105.4672         0.247569   
     13. A(B   1,B   2,B   3)          105.4672         0.247569   
     14. A(B   2,B   3,B   4)          105.4672         0.247569   
     15. A(B   3,B   4,B   5)          105.4672         0.247569   
     16. A(B   4,B   5,B   6)          105.4672         0.247569   
     17. A(B   5,B   6,B   7)          105.4672         0.247569   
     18. A(B   6,B   7,B   8)          105.4672         0.247569   
     19. A(B   7,B   8,B   9)          105.4672         0.247569   
     20. A(B   8,B   9,B  10)          105.4672         0.247569   
     21. A(B   9,B  10,B  11)          105.4672         0.247569   
     22. D(B   3,B   2,B   1,B   0)    180.0000         0.010000   
     23. D(B   4,B   3,B   2,B   1)    180.0000         0.010000   
     24. D(B   5,B   4,B   3,B   2)    180.0000         0.010000   
     25. D(B   6,B   5,B   4,B   3)    180.0000         0.010000   
     26. D(B   7,B   6,B   5,B   4)    180.0000         0.010000   
     27. D(B   8,B   7,B   6,B   5)    180.0000         0.010000   
     28. D(B   9,B   8,B   7,B   6)    180.0000         0.010000   
     29. D(B  10,B   9,B   8,B   7)    180.0000         0.010000   
     30. D(B  11,B  10,B   9,B   8)    180.0000         0.010000   
    -----------------------------------------------------------------

Number of atoms                         .... 12
Number of degrees of freedom            .... 30


         *************************************************************
         *                GEOMETRY OPTIMIZATION CYCLE   1            *
         *************************************************************
---------------------------------
CARTESIAN COORDINATES (ANGSTROEM)
---------------------------------
  B    -8.602000    0.595000    0.000000
  B    -7.038000   -0.595000    0.000000
  B    -5.474000    0.595000    0.000000
  B    -3.910000   -0.595000    0.000000
  B    -2.346000    0.595000    0.000000
  B    -0.782000   -0.595000    0.000000
  B     0.782000    0.595000    0.000000
  B     2.346000   -0.595000    0.000000
  B     3.910000    0.595000    0.000000
  B     5.474000   -0.595000    0.000000
  B     7.038000    0.595000    0.000000
  B     8.602000   -0.595000    0.000000

----------------------------
CARTESIAN COORDINATES (A.U.)
----------------------------
  NO LB    ZA    FRAG    MASS        X           Y           Z
   0 B   5.0000    0    10.810  -16.255424    1.124387    0.000000
   1 B   5.0000    0    10.810  -13.299893   -1.124387    0.000000
   2 B   5.0000    0    10.810  -10.344361    1.124387    0.000000
   3 B   5.0000    0    10.810   -7.388829   -1.124387    0.000000
   4 B   5.0000    0    10.810   -4.433298    1.124387    0.000000
   5 B   5.0000    0    10.810   -1.477766   -1.124387    0.000000
   6 B   5.0000    0    10.810    1.477766    1.124387    0.000000
   7 B   5.0000    0    10.810    4.433298   -1.124387    0.000000
   8 B   5.0000    0    10.810    7.388829    1.124387    0.000000
   9 B   5.0000    0    10.810   10.344361   -1.124387    0.000000
  10 B   5.0000    0    10.810   13.299893    1.124387    0.000000
  11 B   5.0000    0    10.810   16.255424   -1.124387    0.000000

      -----------------------------------------------------------      
     |                   =====================                   |     
     |                           x T B                           |     
     |                   =====================                   |     
     |                         S. Grimme                         |     
     |          Mulliken Center for Theoretical Chemistry        |     
     |                    University of Bonn                     |     
      -----------------------------------------------------------      

   * xtb version 6.6.1 (unknown) compiled by 'builduser@buildhost' on 2023-08-07

   xtb is free software: you can redistribute it and/or modify it under
   the terms of the GNU Lesser General Public License as published by
   the Free Software Foundation, either version 3 of the License, or
   (at your option) any later version.
   
   xtb is distributed in the hope that it will be useful,
   but WITHOUT ANY WARRANTY; without even the implied warranty of
   MERCHANTABILITY or FITNESS FOR A PARTICULAR PURPOSE.  See the
   GNU Lesser General Public License for more details.
   
   Cite this work as:
   * C. Bannwarth, E. Caldeweyher, S. Ehlert, A. Hansen, P. Pracht,
     J. Seibert, S. Spicher, S. Grimme, WIREs Comput. Mol. Sci., 2020, 11,
     e01493. DOI: 10.1002/wcms.1493
   
   for GFN2-xTB:
   * C. Bannwarth, S. Ehlert and S. Grimme., J. Chem. Theory Comput., 2019,
     15, 1652-1671. DOI: 10.1021/acs.jctc.8b01176
   for GFN1-xTB:
   * S. Grimme, C. Bannwarth, P. Shushkov, J. Chem. Theory Comput., 2017,
     13, 1989-2009. DOI: 10.1021/acs.jctc.7b00118
   for GFN0-xTB:
   * P. Pracht, E. Caldeweyher, S. Ehlert, S. Grimme, ChemRxiv, 2019, preprint.
     DOI: 10.26434/chemrxiv.8326202.v1
   for GFN-FF:
   * S. Spicher and S. Grimme, Angew. Chem. Int. Ed., 2020, 59, 15665-15673.
     DOI: 10.1002/anie.202004239
   
   for ALPB and GBSA implicit solvation:
   * S. Ehlert, M. Stahn, S. Spicher, S. Grimme, J. Chem. Theory Comput.,
     2021, 17, 4250-4261. DOI: 10.1021/acs.jctc.1c00471
   
   for DFT-D4:
   * E. Caldeweyher, C. Bannwarth and S. Grimme, J. Chem. Phys., 2017,
     147, 034112. DOI: 10.1063/1.4993215
   * E. Caldeweyher, S. Ehlert, A. Hansen, H. Neugebauer, S. Spicher,
     C. Bannwarth and S. Grimme, J. Chem. Phys., 2019, 150, 154122.
     DOI: 10.1063/1.5090222
   * E. Caldeweyher, J.-M. Mewes, S. Ehlert and S. Grimme, Phys. Chem. Chem. Phys.
     2020, 22, 8499-8512. DOI: 10.1039/D0CP00502A
   
   for sTDA-xTB:
   * S. Grimme and C. Bannwarth, J. Chem. Phys., 2016, 145, 054103.
     DOI: 10.1063/1.4959605
   
   in the mass-spec context:
   * V. Asgeirsson, C. Bauer and S. Grimme, Chem. Sci., 2017, 8, 4879.
     DOI: 10.1039/c7sc00601b
   * J. Koopman and S. Grimme, ACS Omega 2019, 4, 12, 15120-15133.
     DOI: 10.1021/acsomega.9b02011
   
   for metadynamics refer to:
   * S. Grimme, J. Chem. Theory Comput., 2019, 155, 2847-2862
     DOI: 10.1021/acs.jctc.9b00143
   
   for SPH calculations refer to:
   * S. Spicher and S. Grimme, J. Chem. Theory Comput., 2021, 17, 1701-1714
     DOI: 10.1021/acs.jctc.0c01306
   
   with help from (in alphabetical order)
   P. Atkinson, C. Bannwarth, F. Bohle, G. Brandenburg, E. Caldeweyher
   M. Checinski, S. Dohm, S. Ehlert, S. Ehrlich, I. Gerasimov, C. Hölzer
   A. Katbashev, J. Koopman, C. Lavigne, S. Lehtola, F. März, M. Müller,
   F. Musil, H. Neugebauer, J. Pisarek, C. Plett, P. Pracht, F. Pultar,
   J. Seibert, P. Shushkov, S. Spicher, M. Stahn, M. Steiner, T. Strunk,
   J. Stückrath, T. Rose, and J. Unsleber
   
 * started run on 2026/04/17 at 12:14:27.241     

           -------------------------------------------------
          |                Calculation Setup                |
           -------------------------------------------------

          program call               : /usr/bin/xtb zigzag_chain12_d1.70_m1_XTB.xyz --grad -c 0 -u 0 -P 1 --namespace zigzag_chain12_d1.70_m1 --input zigzag_chain12_d1.70_m1_XTB.input.tmp --acc 0.200000
          calculation namespace      : zigzag_chain12_d1.70_m1
          coordinate file            : zigzag_chain12_d1.70_m1_XTB.xyz
          omp threads                :                     1

   ID    Z sym.   atoms
    1    5 B      1-12

molecular fragmentation (1/2 indicates fragments):
112222222222
# atoms in fragment 1/2:     2    10
 fragment masses (1/2) :       21.62      108.11
CMA distance (Bohr)    :  17.733
constraining FC (au)   :  0.0500

           -------------------------------------------------
          |                 G F N 2 - x T B                 |
           -------------------------------------------------

        Reference                      10.1021/acs.jctc.8b01176
      * Hamiltonian:
        H0-scaling (s, p, d)           1.850000    2.230000    2.230000
        zeta-weighting                 0.500000
      * Dispersion:
        s8                             2.700000
        a1                             0.520000
        a2                             5.000000
        s9                             5.000000
      * Repulsion:
        kExp                           1.500000    1.000000
        rExp                           1.000000
      * Coulomb:
        alpha                          2.000000
        third order                    shell-resolved
        anisotropic                    true
        a3                             3.000000
        a5                             4.000000
        cn-shift                       1.200000
        cn-exp                         4.000000
        max-rad                        5.000000


          ...................................................
          :                      SETUP                      :
          :.................................................:
          :  # basis functions                  48          :
          :  # atomic orbitals                  48          :
          :  # shells                           24          :
          :  # electrons                        36          :
          :  max. iterations                   250          :
          :  Hamiltonian                  GFN2-xTB          :
          :  restarted?                      false          :
          :  GBSA solvation                  false          :
          :  PC potential                    false          :
          :  electronic temp.          300.0000000     K    :
          :  accuracy                    0.2000000          :
          :  -> integral cutoff          0.3198970E+02      :
          :  -> integral neglect         0.2000000E-08      :
          :  -> SCF convergence          0.2000000E-06 Eh   :
          :  -> wf. convergence          0.2000000E-04 e    :
          :  Broyden damping             0.4000000          :
          ...................................................

 iter      E             dE          RMSdq      gap      omega  full diag
   1    -13.0947350 -0.130947E+02  0.235E+01    0.05       0.0  T
   2     -8.3888588  0.470588E+01  0.156E+01    0.27       1.0  T
   3     41.3784353  0.497673E+02  0.389E+01    1.40       1.0  T
   4      0.2740998 -0.411043E+02  0.215E+01    0.21       1.0  T
   5     -7.8385815 -0.811268E+01  0.146E+01    0.05       1.0  T
   6     -5.0409912  0.279759E+01  0.163E+01    0.35       1.0  T
   7     -6.4987218 -0.145773E+01  0.134E+01    0.03       1.0  T
   8    -12.5878281 -0.608911E+01  0.549E+00    0.07       1.0  T
   9    -11.0106827  0.157715E+01  0.834E+00    0.03       1.0  T
  10    -12.7431979 -0.173252E+01  0.560E+00    0.09       1.0  T
  11    -12.4070887  0.336109E+00  0.539E+00    0.03       1.0  T
  12    -12.3184168  0.886719E-01  0.562E+00    0.03       1.0  T
  13    -12.2887799  0.296369E-01  0.574E+00    0.04       1.0  T
  14    -12.1917224  0.970575E-01  0.554E+00    0.07       1.0  T
  15    -13.0647437 -0.873021E+00  0.261E+00    0.02       1.0  T
  16    -13.0649340 -0.190303E-03  0.249E+00    0.02       1.0  T
  17    -13.0927440 -0.278100E-01  0.250E+00    0.01       1.0  T
  18    -13.0926739  0.700760E-04  0.250E+00    0.01       1.0  T
  19    -13.0856645  0.700946E-02  0.251E+00    0.01       1.0  T
  20    -13.1059540 -0.202896E-01  0.189E+00    0.00       1.0  T
  21    -13.1145845 -0.863050E-02  0.168E+00    0.00       1.0  T
  22    -13.1170045 -0.242001E-02  0.135E+00    0.02       1.0  T
  23    -13.1215695 -0.456496E-02  0.103E+00    0.01       1.0  T
  24    -13.1251840 -0.361446E-02  0.939E-01    0.01       1.0  T
  25    -13.1278959 -0.271193E-02  0.859E-01    0.02       1.0  T
  26    -13.1305553 -0.265946E-02  0.748E-01    0.02       1.0  T
  27    -13.1349390 -0.438365E-02  0.522E-01    0.03       1.0  T
  28    -13.1367494 -0.181043E-02  0.486E-01    0.03       1.0  T
  29    -13.1363302  0.419192E-03  0.533E-01    0.02       1.0  T
  30    -13.1374303 -0.110003E-02  0.434E-01    0.03       1.0  T
  31    -13.1370387  0.391595E-03  0.424E-01    0.03       1.0  T
  32    -13.1347266  0.231210E-02  0.457E-01    0.03       1.0  T
  33    -13.1357403 -0.101373E-02  0.383E-01    0.03       1.0  T
  34    -13.1364209 -0.680618E-03  0.286E-01    0.03       1.0  T
  35    -13.1373463 -0.925336E-03  0.170E-01    0.03       1.0  T
  36    -13.1375643 -0.218076E-03  0.139E-01    0.03       1.0  T
  37    -13.1378924 -0.328084E-03  0.408E-02    0.03       1.0  T
  38    -13.1378890  0.340004E-05  0.519E-02    0.03       1.0  T
  39    -13.1378977 -0.868174E-05  0.324E-02    0.03       1.0  T
  40    -13.1379017 -0.400100E-05  0.150E-02    0.03       1.9  T
  41    -13.1379029 -0.121790E-05  0.757E-03    0.03       3.8  T
  42    -13.1379031 -0.225123E-06  0.301E-03    0.03       9.6  T
  43    -13.1379032 -0.483795E-07  0.142E-03    0.03      20.3  T
  44    -13.1379032 -0.355840E-07  0.818E-04    0.03      35.3  T
  45    -13.1379032  0.406668E-08  0.727E-04    0.03      39.7  T
  46    -13.1379032 -0.166948E-07  0.315E-04    0.03      91.7  T
  47    -13.1379032 -0.380020E-09  0.214E-04    0.03     135.0  T
  48    -13.1379032 -0.287249E-09  0.218E-04    0.03     132.3  T
  49    -13.1379032  0.848566E-10  0.183E-04    0.03     157.4  T
  50    -13.1379032  0.330225E-10  0.102E-04    0.03     283.7  T

   *** convergence criteria satisfied after 50 iterations ***

         #    Occupation            Energy/Eh            Energy/eV
      -------------------------------------------------------------
         1        2.0000           -0.3871589             -10.5351
       ...           ...                  ...                  ...
        12        2.0000           -0.2684882              -7.3059
        13        2.0000           -0.2632888              -7.1645
        14        2.0000           -0.2622368              -7.1358
        15        2.0000           -0.2595534              -7.0628
        16        1.9999           -0.2577400              -7.0135
        17        1.5507           -0.2495814              -6.7915
        18        1.4575           -0.2493434              -6.7850 (HOMO)
        19        0.9918           -0.2483890              -6.7590 (LUMO)
        20        0.0001           -0.2388395              -6.4992
        21        0.0000           -0.2375831              -6.4650
        22                         -0.2311766              -6.2906
        23                         -0.2221313              -6.0445
       ...                                ...                  ...
        48                          0.1481050               4.0301
      -------------------------------------------------------------
                  HL-Gap            0.0009544 Eh            0.0260 eV
             Fermi-level           -0.2484045 Eh           -6.7594 eV

 SCC (total)                   0 d,  0 h,  0 min,  0.067 sec
 SCC setup                      ...        0 min,  0.000 sec (  0.253%)
 Dispersion                     ...        0 min,  0.000 sec (  0.131%)
 classical contributions        ...        0 min,  0.000 sec (  0.053%)
 integral evaluation            ...        0 min,  0.002 sec (  2.986%)
 iterations                     ...        0 min,  0.060 sec ( 89.774%)
 molecular gradient             ...        0 min,  0.004 sec (  6.240%)
 printout                       ...        0 min,  0.000 sec (  0.517%)

         :::::::::::::::::::::::::::::::::::::::::::::::::::::
         ::                     SUMMARY                     ::
         :::::::::::::::::::::::::::::::::::::::::::::::::::::
         :: total energy             -13.129875891842 Eh    ::
         :: gradient norm              0.412072828297 Eh/a0 ::
         :: HOMO-LUMO gap              0.025969576804 eV    ::
         ::.................................................::
         :: SCC energy               -13.137903241621 Eh    ::
         :: -> isotropic ES            0.066953158222 Eh    ::
         :: -> anisotropic ES          0.002640174336 Eh    ::
         :: -> anisotropic XC         -0.047041077821 Eh    ::
         :: -> dispersion             -0.011653606506 Eh    ::
         :: repulsion energy           0.008224834557 Eh    ::
         :: add. restraining           0.000000000000 Eh    ::
         :: total charge               0.000000000641 e     ::
         :::::::::::::::::::::::::::::::::::::::::::::::::::::


Property printout bound to 'properties.out'

           -------------------------------------------------
          | TOTAL ENERGY              -13.129875891842 Eh   |
          | GRADIENT NORM               0.412072828297 Eh/α |
          | HOMO-LUMO GAP               0.025969576804 eV   |
           -------------------------------------------------

------------------------------------------------------------------------
 * finished run on 2026/04/17 at 12:14:27.323     
------------------------------------------------------------------------
 total:
 * wall-time:     0 d,  0 h,  0 min,  0.082 sec
 *  cpu-time:     0 d,  0 h,  0 min,  0.081 sec
 * ratio c/w:     0.988 speedup
 SCF:
 * wall-time:     0 d,  0 h,  0 min,  0.067 sec
 *  cpu-time:     0 d,  0 h,  0 min,  0.067 sec
 * ratio c/w:     0.994 speedup


-------------------------   --------------------
FINAL SINGLE POINT ENERGY       -13.129875891840
-------------------------   --------------------


-------------
DIPOLE MOMENT
-------------
                                X             Y             Z
Total Dipole Moment    :      0.00000       0.00000       0.00000
                        -----------------------------------------
Magnitude (a.u.)       :      0.00000
Magnitude (Debye)      :      0.00000


------------------
CARTESIAN GRADIENT
------------------

   1   B   :   -0.071264245    0.056799027   -0.000000000
   2   B   :    0.007867465   -0.118872768    0.000000000
   3   B   :    0.005646365    0.123958204   -0.000000000
   4   B   :    0.005873227   -0.122764680   -0.000000000
   5   B   :    0.003158268    0.124146195    0.000000000
   6   B   :    0.000361591   -0.128370945   -0.000000000
   7   B   :   -0.000361596    0.128370936    0.000000000
   8   B   :   -0.003158276   -0.124146180    0.000000000
   9   B   :   -0.005873219    0.122764669   -0.000000000
  10   B   :   -0.005646352   -0.123958190   -0.000000000
  11   B   :   -0.007867469    0.118872756   -0.000000000
  12   B   :    0.071264242   -0.056799024    0.000000000

Difference to translation invariance:
           :    0.0000000000   -0.0000000000   -0.0000000000

Difference to rotation invariance:
           :    0.0000000000   -0.0000000000    0.0158640012

Norm of the Cartesian gradient     ...    0.4120728283
RMS gradient                       ...    0.0686788047
MAX gradient                       ...    0.1283709445
------------------------------------------------------------------------------
                         ORCA GEOMETRY RELAXATION STEP
------------------------------------------------------------------------------

Reading the OPT-File                    .... done
Getting information on internals        .... done
Copying old internal coords+grads       .... done
Making the new internal coordinates     .... (2022 redundants) done
Validating the new internal coordinates .... (2022 redundants) done
Calculating the B-matrix                .... done
Calculating the G,G- and P matrices     .... done
Transforming gradient to internals      .... done
Projecting the internal gradient        .... done
Number of atoms                         ....  12
Number of internal coordinates          ....  30
Current Energy                          ....   -13.129875892 Eh
Current gradient norm                   ....     0.412072828 Eh/bohr
Maximum allowed component of the step   ....  0.300
Current trust radius                    ....  0.300
Evaluating the initial hessian          ....  (Almloef) done
Projecting the Hessian                  .... done
Forming the augmented Hessian           .... done
Diagonalizing the augmented Hessian     .... done
Last element of RFO vector              ....  0.769762043
Lowest eigenvalues of augmented Hessian:
 -0.241605210  0.010000000  0.010000000  0.010000000  0.010000000
Length of the computed step             ....  0.829257500
Warning: the length of the step is outside the trust region - taking restricted step instead
The input lambda is                     ....     0.009000
   iter:   5  x=   -0.523408  g=    1.791152 f(x)=     0.317402
   iter:  10  x=   -0.861025  g=    0.184933 f(x)=     0.000001
The output lambda is                    ....    -0.861025 (12 iterations)
The final length of the internal step   ....  0.300000000
Converting the step to Cartesian space:
 Initial RMS(Int)=    0.0547722558
Transforming coordinates:
 Iter   0:  RMS(Cart)=    0.0800066959 RMS(Int)=    2.2949448294
done
Storing new coordinates                 .... done

                                .--------------------.
          ----------------------|Geometry convergence|-------------------------
          Item                value                   Tolerance       Converged
          ---------------------------------------------------------------------
          RMS gradient        0.0534431660            0.0000300000      NO
          MAX gradient        0.0912194611            0.0001000000      NO
          RMS step            0.0547722558            0.0006000000      NO
          MAX step            0.0947908561            0.0010000000      NO
          -------------------------------------------------------------------------
          ........................................................
          Max(Bonds)      0.0502      Max(Angles)    2.11
          Max(Dihed)        0.00      Max(Improp)    0.00
          ---------------------------------------------------------------------

The optimization has not yet converged - more geometry cycles are needed


    ---------------------------------------------------------------------------
                         Redundant Internal Coordinates
                            (Angstroem and degrees)

        Definition                    Value    dE/dq     Step     New-Value
    ----------------------------------------------------------------------------
     1. B(B   1,B   0)                1.9652  0.091219 -0.0502    1.9151   
     2. B(B   2,B   1)                1.9652  0.087815 -0.0483    1.9170   
     3. B(B   3,B   2)                1.9652  0.083724 -0.0460    1.9192   
     4. B(B   4,B   3)                1.9652  0.077790 -0.0428    1.9225   
     5. B(B   5,B   4)                1.9652  0.077463 -0.0426    1.9227   
     6. B(B   6,B   5)                1.9652  0.077502 -0.0426    1.9226   
     7. B(B   7,B   6)                1.9652  0.077463 -0.0426    1.9227   
     8. B(B   8,B   7)                1.9652  0.077790 -0.0428    1.9225   
     9. B(B   9,B   8)                1.9652  0.083724 -0.0460    1.9192   
    10. B(B  10,B   9)                1.9652  0.087815 -0.0483    1.9170   
    11. B(B  11,B  10)                1.9652  0.091219 -0.0502    1.9151   
    12. A(B   0,B   1,B   2)          105.47 -0.008249    0.43    105.89   
    13. A(B   1,B   2,B   3)          105.47 -0.031551    1.63    107.10   
    14. A(B   2,B   3,B   4)          105.47 -0.022994    1.19    106.66   
    15. A(B   3,B   4,B   5)          105.47 -0.038525    1.99    107.46   
    16. A(B   4,B   5,B   6)          105.47 -0.040851    2.11    107.58   
    17. A(B   5,B   6,B   7)          105.47 -0.040851    2.11    107.58   
    18. A(B   6,B   7,B   8)          105.47 -0.038525    1.99    107.46   
    19. A(B   7,B   8,B   9)          105.47 -0.022994    1.19    106.66   
    20. A(B   8,B   9,B  10)          105.47 -0.031551    1.63    107.10   
    21. A(B   9,B  10,B  11)          105.47 -0.008249    0.43    105.89   
    22. D(B   3,B   2,B   1,B   0)    180.00 -0.000000   -0.00    180.00   
    23. D(B   4,B   3,B   2,B   1)    180.00  0.000000    0.00    180.00   
    24. D(B   5,B   4,B   3,B   2)    180.00 -0.000000    0.00    180.00   
    25. D(B   6,B   5,B   4,B   3)    180.00  0.000000    0.00    180.00   
    26. D(B   7,B   6,B   5,B   4)    180.00 -0.000000   -0.00    180.00   
    27. D(B   8,B   7,B   6,B   5)    180.00  0.000000   -0.00    180.00   
    28. D(B   9,B   8,B   7,B   6)    180.00 -0.000000   -0.00    180.00   
    29. D(B  10,B   9,B   8,B   7)    180.00  0.000000    0.00    180.00   
    30. D(B  11,B  10,B   9,B   8)    180.00 -0.000000   -0.00    180.00   
    ----------------------------------------------------------------------------

Geometry step timings:
Preparation and reading OPT file:      0.000 s ( 3.032 %)
Internal coordinates            :      0.000 s ( 1.572 %)
B/P matrices and projection     :      0.000 s (20.550 %)
Hessian update/contruction      :      0.000 s (17.967 %)
Making the step                 :      0.000 s (27.625 %)
Converting the step to Cartesian:      0.000 s ( 2.583 %)
Storing new data                :      0.000 s ( 2.751 %)
Checking convergence            :      0.000 s ( 1.965 %)
Final printing                  :      0.000 s (21.842 %)
Total time                      :      0.002 s

Time for energy+gradient        :      0.101 s
Time for complete geometry iter :      0.105 s

         *************************************************************
         *                GEOMETRY OPTIMIZATION CYCLE   2            *
         *************************************************************
---------------------------------
CARTESIAN COORDINATES (ANGSTROEM)
---------------------------------
  B    -8.468953    0.602760   -0.000000
  B    -6.958397   -0.574430   -0.000000
  B    -5.411031    0.557111   -0.000000
  B    -3.872763   -0.590534    0.000000
  B    -2.329753    0.556205    0.000000
  B    -0.772770   -0.571797   -0.000000
  B     0.772770    0.571797    0.000000
  B     2.329753   -0.556205    0.000000
  B     3.872763    0.590534   -0.000000
  B     5.411031   -0.557111   -0.000000
  B     6.958397    0.574430   -0.000000
  B     8.468953   -0.602760   -0.000000

----------------------------
CARTESIAN COORDINATES (A.U.)
----------------------------
  NO LB    ZA    FRAG    MASS        X           Y           Z
   0 B   5.0000    0    10.810  -16.004001    1.139051   -0.000000
   1 B   5.0000    0    10.810  -13.149465   -1.085515   -0.000000
   2 B   5.0000    0    10.810  -10.225367    1.052788   -0.000000
   3 B   5.0000    0    10.810   -7.318462   -1.115948    0.000000
   4 B   5.0000    0    10.810   -4.402595    1.051076    0.000000
   5 B   5.0000    0    10.810   -1.460324   -1.080540   -0.000000
   6 B   5.0000    0    10.810    1.460324    1.080540    0.000000
   7 B   5.0000    0    10.810    4.402595   -1.051076    0.000000
   8 B   5.0000    0    10.810    7.318462    1.115948   -0.000000
   9 B   5.0000    0    10.810   10.225367   -1.052788   -0.000000
  10 B   5.0000    0    10.810   13.149465    1.085515   -0.000000
  11 B   5.0000    0    10.810   16.004001   -1.139051   -0.000000

      -----------------------------------------------------------      
     |                   =====================                   |     
     |                           x T B                           |     
     |                   =====================                   |     
     |                         S. Grimme                         |     
     |          Mulliken Center for Theoretical Chemistry        |     
     |                    University of Bonn                     |     
      -----------------------------------------------------------      

   * xtb version 6.6.1 (unknown) compiled by 'builduser@buildhost' on 2023-08-07

   xtb is free software: you can redistribute it and/or modify it under
   the terms of the GNU Lesser General Public License as published by
   the Free Software Foundation, either version 3 of the License, or
   (at your option) any later version.
   
   xtb is distributed in the hope that it will be useful,
   but WITHOUT ANY WARRANTY; without even the implied warranty of
   MERCHANTABILITY or FITNESS FOR A PARTICULAR PURPOSE.  See the
   GNU Lesser General Public License for more details.
   
   Cite this work as:
   * C. Bannwarth, E. Caldeweyher, S. Ehlert, A. Hansen, P. Pracht,
     J. Seibert, S. Spicher, S. Grimme, WIREs Comput. Mol. Sci., 2020, 11,
     e01493. DOI: 10.1002/wcms.1493
   
   for GFN2-xTB:
   * C. Bannwarth, S. Ehlert and S. Grimme., J. Chem. Theory Comput., 2019,
     15, 1652-1671. DOI: 10.1021/acs.jctc.8b01176
   for GFN1-xTB:
   * S. Grimme, C. Bannwarth, P. Shushkov, J. Chem. Theory Comput., 2017,
     13, 1989-2009. DOI: 10.1021/acs.jctc.7b00118
   for GFN0-xTB:
   * P. Pracht, E. Caldeweyher, S. Ehlert, S. Grimme, ChemRxiv, 2019, preprint.
     DOI: 10.26434/chemrxiv.8326202.v1
   for GFN-FF:
   * S. Spicher and S. Grimme, Angew. Chem. Int. Ed., 2020, 59, 15665-15673.
     DOI: 10.1002/anie.202004239
   
   for ALPB and GBSA implicit solvation:
   * S. Ehlert, M. Stahn, S. Spicher, S. Grimme, J. Chem. Theory Comput.,
     2021, 17, 4250-4261. DOI: 10.1021/acs.jctc.1c00471
   
   for DFT-D4:
   * E. Caldeweyher, C. Bannwarth and S. Grimme, J. Chem. Phys., 2017,
     147, 034112. DOI: 10.1063/1.4993215
   * E. Caldeweyher, S. Ehlert, A. Hansen, H. Neugebauer, S. Spicher,
     C. Bannwarth and S. Grimme, J. Chem. Phys., 2019, 150, 154122.
     DOI: 10.1063/1.5090222
   * E. Caldeweyher, J.-M. Mewes, S. Ehlert and S. Grimme, Phys. Chem. Chem. Phys.
     2020, 22, 8499-8512. DOI: 10.1039/D0CP00502A
   
   for sTDA-xTB:
   * S. Grimme and C. Bannwarth, J. Chem. Phys., 2016, 145, 054103.
     DOI: 10.1063/1.4959605
   
   in the mass-spec context:
   * V. Asgeirsson, C. Bauer and S. Grimme, Chem. Sci., 2017, 8, 4879.
     DOI: 10.1039/c7sc00601b
   * J. Koopman and S. Grimme, ACS Omega 2019, 4, 12, 15120-15133.
     DOI: 10.1021/acsomega.9b02011
   
   for metadynamics refer to:
   * S. Grimme, J. Chem. Theory Comput., 2019, 155, 2847-2862
     DOI: 10.1021/acs.jctc.9b00143
   
   for SPH calculations refer to:
   * S. Spicher and S. Grimme, J. Chem. Theory Comput., 2021, 17, 1701-1714
     DOI: 10.1021/acs.jctc.0c01306
   
   with help from (in alphabetical order)
   P. Atkinson, C. Bannwarth, F. Bohle, G. Brandenburg, E. Caldeweyher
   M. Checinski, S. Dohm, S. Ehlert, S. Ehrlich, I. Gerasimov, C. Hölzer
   A. Katbashev, J. Koopman, C. Lavigne, S. Lehtola, F. März, M. Müller,
   F. Musil, H. Neugebauer, J. Pisarek, C. Plett, P. Pracht, F. Pultar,
   J. Seibert, P. Shushkov, S. Spicher, M. Stahn, M. Steiner, T. Strunk,
   J. Stückrath, T. Rose, and J. Unsleber
   
 * started run on 2026/04/17 at 12:14:27.340     

           -------------------------------------------------
          |                Calculation Setup                |
           -------------------------------------------------

          program call               : /usr/bin/xtb zigzag_chain12_d1.70_m1_XTB.xyz --grad -c 0 -u 0 -P 1 --namespace zigzag_chain12_d1.70_m1 --input zigzag_chain12_d1.70_m1_XTB.input.tmp --acc 0.200000
          calculation namespace      : zigzag_chain12_d1.70_m1
          coordinate file            : zigzag_chain12_d1.70_m1_XTB.xyz
          omp threads                :                     1

   ID    Z sym.   atoms
    1    5 B      1-12

           -------------------------------------------------
          |                 G F N 2 - x T B                 |
           -------------------------------------------------

        Reference                      10.1021/acs.jctc.8b01176
      * Hamiltonian:
        H0-scaling (s, p, d)           1.850000    2.230000    2.230000
        zeta-weighting                 0.500000
      * Dispersion:
        s8                             2.700000
        a1                             0.520000
        a2                             5.000000
        s9                             5.000000
      * Repulsion:
        kExp                           1.500000    1.000000
        rExp                           1.000000
      * Coulomb:
        alpha                          2.000000
        third order                    shell-resolved
        anisotropic                    true
        a3                             3.000000
        a5                             4.000000
        cn-shift                       1.200000
        cn-exp                         4.000000
        max-rad                        5.000000

q/qsh data taken from xtbrestart
CAMM data taken from xtbrestart

          ...................................................
          :                      SETUP                      :
          :.................................................:
          :  # basis functions                  48          :
          :  # atomic orbitals                  48          :
          :  # shells                           24          :
          :  # electrons                        36          :
          :  max. iterations                   250          :
          :  Hamiltonian                  GFN2-xTB          :
          :  restarted?                       true          :
          :  GBSA solvation                  false          :
          :  PC potential                    false          :
          :  electronic temp.          300.0000000     K    :
          :  accuracy                    0.2000000          :
          :  -> integral cutoff          0.3198970E+02      :
          :  -> integral neglect         0.2000000E-08      :
          :  -> SCF convergence          0.2000000E-06 Eh   :
          :  -> wf. convergence          0.2000000E-04 e    :
          :  Broyden damping             0.4000000          :
          ...................................................

 iter      E             dE          RMSdq      gap      omega  full diag
   1    -13.2266837 -0.132267E+02  0.150E+00    0.08       0.0  T
   2    -12.9508093  0.275874E+00  0.290E+00    0.03       1.0  T
   3    -11.4087847  0.154202E+01  0.702E+00    0.12       1.0  T
   4    -12.9979772 -0.158919E+01  0.346E+00    0.19       1.0  T
   5    -13.1878695 -0.189892E+00  0.155E+00    0.09       1.0  T
   6    -13.0904709  0.973985E-01  0.235E+00    0.08       1.0  T
   7    -13.2172161 -0.126745E+00  0.892E-01    0.10       1.0  T
   8    -13.2109504  0.626569E-02  0.959E-01    0.08       1.0  T
   9    -13.2170399 -0.608949E-02  0.772E-01    0.10       1.0  T
  10    -13.2234057 -0.636578E-02  0.570E-01    0.08       1.0  T
  11    -13.2198331  0.357253E-02  0.634E-01    0.08       1.0  T
  12    -13.2288103 -0.897714E-02  0.325E-01    0.07       1.0  T
  13    -13.2293226 -0.512285E-03  0.297E-01    0.08       1.0  T
  14    -13.2293495 -0.269360E-04  0.295E-01    0.08       1.0  T
  15    -13.2291503  0.199184E-03  0.260E-01    0.08       1.0  T
  16    -13.2299957 -0.845424E-03  0.187E-01    0.08       1.0  T
  17    -13.2299565  0.392763E-04  0.180E-01    0.08       1.0  T
  18    -13.2300377 -0.812358E-04  0.157E-01    0.08       1.0  T
  19    -13.2300466 -0.892235E-05  0.150E-01    0.08       1.0  T
  20    -13.2300872 -0.405540E-04  0.107E-01    0.08       1.0  T
  21    -13.2300974 -0.102582E-04  0.934E-02    0.08       1.0  T
  22    -13.2301219 -0.244792E-04  0.492E-02    0.08       1.0  T
  23    -13.2301351 -0.131727E-04  0.150E-02    0.08       1.9  T
  24    -13.2301364 -0.127221E-05  0.579E-03    0.08       5.0  T
  25    -13.2301366 -0.241771E-06  0.121E-03    0.08      23.9  T
  26    -13.2301366 -0.891220E-08  0.561E-04    0.08      51.5  T
  27    -13.2301366 -0.637318E-08  0.230E-04    0.08     125.6  T
  28    -13.2301366 -0.519698E-09  0.127E-04    0.08     228.2  T
  29    -13.2301366 -0.954632E-10  0.303E-05    0.08     953.7  T

   *** convergence criteria satisfied after 29 iterations ***

         #    Occupation            Energy/Eh            Energy/eV
      -------------------------------------------------------------
         1        2.0000           -0.3895543             -10.6003
       ...           ...                  ...                  ...
        12        2.0000           -0.2680565              -7.2942
        13        2.0000           -0.2645899              -7.1999
        14        2.0000           -0.2598204              -7.0701
        15        2.0000           -0.2591310              -7.0513
        16        1.9999           -0.2571310              -6.9969
        17        1.8942           -0.2498984              -6.8001
        18        1.6845           -0.2487491              -6.7688 (HOMO)
        19        0.4214           -0.2459030              -6.6914 (LUMO)
        20        0.0001           -0.2373797              -6.4594
        21        0.0000           -0.2356156              -6.4114
        22                         -0.2276277              -6.1941
        23                         -0.2213866              -6.0242
       ...                                ...                  ...
        48                          0.1909717               5.1966
      -------------------------------------------------------------
                  HL-Gap            0.0028461 Eh            0.0774 eV
             Fermi-level           -0.2471578 Eh           -6.7255 eV

 SCC (total)                   0 d,  0 h,  0 min,  0.039 sec
 SCC setup                      ...        0 min,  0.000 sec (  0.389%)
 Dispersion                     ...        0 min,  0.000 sec (  0.229%)
 classical contributions        ...        0 min,  0.000 sec (  0.094%)
 integral evaluation            ...        0 min,  0.002 sec (  6.039%)
 iterations                     ...        0 min,  0.030 sec ( 78.416%)
 molecular gradient             ...        0 min,  0.005 sec ( 14.045%)
 printout                       ...        0 min,  0.000 sec (  0.723%)

         :::::::::::::::::::::::::::::::::::::::::::::::::::::
         ::                     SUMMARY                     ::
         :::::::::::::::::::::::::::::::::::::::::::::::::::::
         :: total energy             -13.218459039046 Eh    ::
         :: gradient norm              0.421458788984 Eh/a0 ::
         :: HOMO-LUMO gap              0.077447346723 eV    ::
         ::.................................................::
         :: SCC energy               -13.230136611378 Eh    ::
         :: -> isotropic ES            0.074794205138 Eh    ::
         :: -> anisotropic ES          0.003147767876 Eh    ::
         :: -> anisotropic XC         -0.048252978026 Eh    ::
         :: -> dispersion             -0.010160855655 Eh    ::
         :: repulsion energy           0.011842287063 Eh    ::
         :: add. restraining           0.000000000000 Eh    ::
         :: total charge              -0.000000000000 e     ::
         :::::::::::::::::::::::::::::::::::::::::::::::::::::


Property printout bound to 'properties.out'

           -------------------------------------------------
          | TOTAL ENERGY              -13.218459039046 Eh   |
          | GRADIENT NORM               0.421458788984 Eh/α |
          | HOMO-LUMO GAP               0.077447346723 eV   |
           -------------------------------------------------

------------------------------------------------------------------------
 * finished run on 2026/04/17 at 12:14:27.391     
------------------------------------------------------------------------
 total:
 * wall-time:     0 d,  0 h,  0 min,  0.050 sec
 *  cpu-time:     0 d,  0 h,  0 min,  0.050 sec
 * ratio c/w:     0.996 speedup
 SCF:
 * wall-time:     0 d,  0 h,  0 min,  0.039 sec
 *  cpu-time:     0 d,  0 h,  0 min,  0.039 sec
 * ratio c/w:     0.997 speedup


-------------------------   --------------------
FINAL SINGLE POINT ENERGY       -13.218459039050
-------------------------   --------------------


-------------
DIPOLE MOMENT
-------------
                                X             Y             Z
Total Dipole Moment    :      0.00000      -0.00000       0.00000
                        -----------------------------------------
Magnitude (a.u.)       :      0.00000
Magnitude (Debye)      :      0.00000


------------------
CARTESIAN GRADIENT
------------------

   1   B   :   -0.075006924    0.062802392   -0.000000000
   2   B   :    0.009242125   -0.124060375    0.000000000
   3   B   :    0.008243454    0.122568470   -0.000000000
   4   B   :    0.005742532   -0.121657422   -0.000000000
   5   B   :    0.002238989    0.125420480    0.000000000
   6   B   :    0.001442626   -0.134556116   -0.000000000
   7   B   :   -0.001442677    0.134556049    0.000000000
   8   B   :   -0.002238972   -0.125420364    0.000000000
   9   B   :   -0.005742519    0.121657369   -0.000000000
  10   B   :   -0.008243417   -0.122568451   -0.000000000
  11   B   :   -0.009242094    0.124060319    0.000000000
  12   B   :    0.075006877   -0.062802353    0.000000000

Difference to translation invariance:
           :    0.0000000000    0.0000000000    0.0000000000

Difference to rotation invariance:
           :    0.0000000000   -0.0000000000    0.0000000442

Norm of the Cartesian gradient     ...    0.4214587890
RMS gradient                       ...    0.0702431315
MAX gradient                       ...    0.1345561156
------------------------------------------------------------------------------
                         ORCA GEOMETRY RELAXATION STEP
------------------------------------------------------------------------------

Reading the OPT-File                    .... done
Getting information on internals        .... done
Copying old internal coords+grads       .... done
Making the new internal coordinates     .... (2022 redundants) done
Validating the new internal coordinates .... (2022 redundants) done
Calculating the B-matrix                .... done
Calculating the G,G- and P matrices     .... done
Transforming gradient to internals      .... done
Projecting the internal gradient        .... done
Number of atoms                         ....  12
Number of internal coordinates          ....  30
Current Energy                          ....   -13.218459039 Eh
Current gradient norm                   ....     0.421458789 Eh/bohr
Maximum allowed component of the step   ....  0.300
Current trust radius                    ....  0.300
Updating the Hessian (BFGS)             .... done
Forming the augmented Hessian           .... done
Diagonalizing the augmented Hessian     .... done
Last element of RFO vector              ....  0.768706001
Lowest eigenvalues of augmented Hessian:
 -0.248611072  0.010000000  0.010000000  0.010000000  0.010000000
Length of the computed step             ....  0.832050595
Warning: the length of the step is outside the trust region - taking restricted step instead
The input lambda is                     ....     0.009000
   iter:   5  x=   -0.528213  g=    1.851739 f(x)=     0.333507
   iter:  10  x=   -0.885060  g=    0.180307 f(x)=     0.000002
The output lambda is                    ....    -0.885060 (12 iterations)
The final length of the internal step   ....  0.300000000
Converting the step to Cartesian space:
 Initial RMS(Int)=    0.0547722558
Transforming coordinates:
 Iter   0:  RMS(Cart)=    0.0771277321 RMS(Int)=    0.0546881803
done
Storing new coordinates                 .... done
The predicted energy change is          ....    -0.084824661
Previously predicted energy change      ....    -0.082615441
Actually observed energy change         ....    -0.088583147
Ratio of predicted to observed change   ....     1.072234750
New trust radius                        ....     0.450000000

                                .--------------------.
          ----------------------|Geometry convergence|-------------------------
          Item                value                   Tolerance       Converged
          ---------------------------------------------------------------------
          Energy change      -0.0885831472            0.0000010000      NO
          RMS gradient        0.0548178714            0.0000300000      NO
          MAX gradient        0.0977671363            0.0001000000      NO
          RMS step            0.0547722558            0.0006000000      NO
          MAX step            0.0991192711            0.0010000000      NO
          -------------------------------------------------------------------------
          ........................................................
          Max(Bonds)      0.0525      Max(Angles)    2.50
          Max(Dihed)        0.00      Max(Improp)    0.00
          ---------------------------------------------------------------------

The optimization has not yet converged - more geometry cycles are needed


    ---------------------------------------------------------------------------
                         Redundant Internal Coordinates
                            (Angstroem and degrees)

        Definition                    Value    dE/dq     Step     New-Value
    ----------------------------------------------------------------------------
     1. B(B   1,B   0)                1.9151  0.097767 -0.0525    1.8626   
     2. B(B   2,B   1)                1.9170  0.089245 -0.0479    1.8691   
     3. B(B   3,B   2)                1.9192  0.082766 -0.0444    1.8748   
     4. B(B   4,B   3)                1.9225  0.077555 -0.0416    1.8809   
     5. B(B   5,B   4)                1.9227  0.078296 -0.0420    1.8806   
     6. B(B   6,B   5)                1.9226  0.079993 -0.0429    1.8797   
     7. B(B   7,B   6)                1.9227  0.078296 -0.0420    1.8806   
     8. B(B   8,B   7)                1.9225  0.077555 -0.0416    1.8809   
     9. B(B   9,B   8)                1.9192  0.082766 -0.0444    1.8748   
    10. B(B  10,B   9)                1.9170  0.089245 -0.0479    1.8691   
    11. B(B  11,B  10)                1.9151  0.097767 -0.0525    1.8626   
    12. A(B   0,B   1,B   2)          105.89 -0.012414    0.63    106.52   
    13. A(B   1,B   2,B   3)          107.10 -0.026085    1.32    108.42   
    14. A(B   2,B   3,B   4)          106.66 -0.027390    1.39    108.04   
    15. A(B   3,B   4,B   5)          107.46 -0.036368    1.84    109.30   
    16. A(B   4,B   5,B   6)          107.58 -0.049496    2.50    110.08   
    17. A(B   5,B   6,B   7)          107.58 -0.049496    2.50    110.08   
    18. A(B   6,B   7,B   8)          107.46 -0.036368    1.84    109.30   
    19. A(B   7,B   8,B   9)          106.66 -0.027390    1.39    108.04   
    20. A(B   8,B   9,B  10)          107.10 -0.026085    1.32    108.42   
    21. A(B   9,B  10,B  11)          105.89 -0.012414    0.63    106.52   
    22. D(B   3,B   2,B   1,B   0)    180.00  0.000000   -0.00    180.00   
    23. D(B   4,B   3,B   2,B   1)   -180.00 -0.000000    0.00   -180.00   
    24. D(B   5,B   4,B   3,B   2)   -180.00 -0.000000    0.00   -180.00   
    25. D(B   6,B   5,B   4,B   3)   -180.00 -0.000000    0.00   -180.00   
    26. D(B   7,B   6,B   5,B   4)    180.00 -0.000000   -0.00    180.00   
    27. D(B   8,B   7,B   6,B   5)    180.00 -0.000000   -0.00    180.00   
    28. D(B   9,B   8,B   7,B   6)    180.00 -0.000000    0.00    180.00   
    29. D(B  10,B   9,B   8,B   7)   -180.00  0.000000    0.00   -180.00   
    30. D(B  11,B  10,B   9,B   8)    180.00 -0.000000    0.00    180.00   
    ----------------------------------------------------------------------------

Geometry step timings:
Preparation and reading OPT file:      0.000 s ( 7.117 %)
Internal coordinates            :      0.000 s ( 1.444 %)
B/P matrices and projection     :      0.000 s (18.360 %)
Hessian update/contruction      :      0.001 s (32.388 %)
Making the step                 :      0.000 s (17.277 %)
Converting the step to Cartesian:      0.000 s ( 1.960 %)
Storing new data                :      0.000 s ( 2.269 %)
Checking convergence            :      0.000 s ( 3.404 %)
Final printing                  :      0.000 s (15.730 %)
Total time                      :      0.002 s

Time for energy+gradient        :      0.063 s
Time for complete geometry iter :      0.066 s

         *************************************************************
         *                GEOMETRY OPTIMIZATION CYCLE   3            *
         *************************************************************
---------------------------------
CARTESIAN COORDINATES (ANGSTROEM)
---------------------------------
  B    -8.342239    0.591263   -0.000000
  B    -6.873325   -0.554031   -0.000000
  B    -5.352351    0.532289   -0.000000
  B    -3.836510   -0.570940    0.000000
  B    -2.313158    0.532257    0.000000
  B    -0.768685   -0.540790    0.000000
  B     0.768685    0.540790    0.000000
  B     2.313158   -0.532257    0.000000
  B     3.836509    0.570940   -0.000000
  B     5.352351   -0.532289   -0.000000
  B     6.873325    0.554031   -0.000000
  B     8.342239   -0.591263   -0.000000

----------------------------
CARTESIAN COORDINATES (A.U.)
----------------------------
  NO LB    ZA    FRAG    MASS        X           Y           Z
   0 B   5.0000    0    10.810  -15.764547    1.117325   -0.000000
   1 B   5.0000    0    10.810  -12.988702   -1.046966   -0.000000
   2 B   5.0000    0    10.810  -10.114477    1.005881   -0.000000
   3 B   5.0000    0    10.810   -7.249952   -1.078921    0.000000
   4 B   5.0000    0    10.810   -4.371235    1.005819    0.000000
   5 B   5.0000    0    10.810   -1.452604   -1.021945    0.000000
   6 B   5.0000    0    10.810    1.452604    1.021945    0.000000
   7 B   5.0000    0    10.810    4.371235   -1.005820    0.000000
   8 B   5.0000    0    10.810    7.249952    1.078921   -0.000000
   9 B   5.0000    0    10.810   10.114477   -1.005881   -0.000000
  10 B   5.0000    0    10.810   12.988702    1.046966   -0.000000
  11 B   5.0000    0    10.810   15.764547   -1.117325   -0.000000

      -----------------------------------------------------------      
     |                   =====================                   |     
     |                           x T B                           |     
     |                   =====================                   |     
     |                         S. Grimme                         |     
     |          Mulliken Center for Theoretical Chemistry        |     
     |                    University of Bonn                     |     
      -----------------------------------------------------------      

   * xtb version 6.6.1 (unknown) compiled by 'builduser@buildhost' on 2023-08-07

   xtb is free software: you can redistribute it and/or modify it under
   the terms of the GNU Lesser General Public License as published by
   the Free Software Foundation, either version 3 of the License, or
   (at your option) any later version.
   
   xtb is distributed in the hope that it will be useful,
   but WITHOUT ANY WARRANTY; without even the implied warranty of
   MERCHANTABILITY or FITNESS FOR A PARTICULAR PURPOSE.  See the
   GNU Lesser General Public License for more details.
   
   Cite this work as:
   * C. Bannwarth, E. Caldeweyher, S. Ehlert, A. Hansen, P. Pracht,
     J. Seibert, S. Spicher, S. Grimme, WIREs Comput. Mol. Sci., 2020, 11,
     e01493. DOI: 10.1002/wcms.1493
   
   for GFN2-xTB:
   * C. Bannwarth, S. Ehlert and S. Grimme., J. Chem. Theory Comput., 2019,
     15, 1652-1671. DOI: 10.1021/acs.jctc.8b01176
   for GFN1-xTB:
   * S. Grimme, C. Bannwarth, P. Shushkov, J. Chem. Theory Comput., 2017,
     13, 1989-2009. DOI: 10.1021/acs.jctc.7b00118
   for GFN0-xTB:
   * P. Pracht, E. Caldeweyher, S. Ehlert, S. Grimme, ChemRxiv, 2019, preprint.
     DOI: 10.26434/chemrxiv.8326202.v1
   for GFN-FF:
   * S. Spicher and S. Grimme, Angew. Chem. Int. Ed., 2020, 59, 15665-15673.
     DOI: 10.1002/anie.202004239
   
   for ALPB and GBSA implicit solvation:
   * S. Ehlert, M. Stahn, S. Spicher, S. Grimme, J. Chem. Theory Comput.,
     2021, 17, 4250-4261. DOI: 10.1021/acs.jctc.1c00471
   
   for DFT-D4:
   * E. Caldeweyher, C. Bannwarth and S. Grimme, J. Chem. Phys., 2017,
     147, 034112. DOI: 10.1063/1.4993215
   * E. Caldeweyher, S. Ehlert, A. Hansen, H. Neugebauer, S. Spicher,
     C. Bannwarth and S. Grimme, J. Chem. Phys., 2019, 150, 154122.
     DOI: 10.1063/1.5090222
   * E. Caldeweyher, J.-M. Mewes, S. Ehlert and S. Grimme, Phys. Chem. Chem. Phys.
     2020, 22, 8499-8512. DOI: 10.1039/D0CP00502A
   
   for sTDA-xTB:
   * S. Grimme and C. Bannwarth, J. Chem. Phys., 2016, 145, 054103.
     DOI: 10.1063/1.4959605
   
   in the mass-spec context:
   * V. Asgeirsson, C. Bauer and S. Grimme, Chem. Sci., 2017, 8, 4879.
     DOI: 10.1039/c7sc00601b
   * J. Koopman and S. Grimme, ACS Omega 2019, 4, 12, 15120-15133.
     DOI: 10.1021/acsomega.9b02011
   
   for metadynamics refer to:
   * S. Grimme, J. Chem. Theory Comput., 2019, 155, 2847-2862
     DOI: 10.1021/acs.jctc.9b00143
   
   for SPH calculations refer to:
   * S. Spicher and S. Grimme, J. Chem. Theory Comput., 2021, 17, 1701-1714
     DOI: 10.1021/acs.jctc.0c01306
   
   with help from (in alphabetical order)
   P. Atkinson, C. Bannwarth, F. Bohle, G. Brandenburg, E. Caldeweyher
   M. Checinski, S. Dohm, S. Ehlert, S. Ehrlich, I. Gerasimov, C. Hölzer
   A. Katbashev, J. Koopman, C. Lavigne, S. Lehtola, F. März, M. Müller,
   F. Musil, H. Neugebauer, J. Pisarek, C. Plett, P. Pracht, F. Pultar,
   J. Seibert, P. Shushkov, S. Spicher, M. Stahn, M. Steiner, T. Strunk,
   J. Stückrath, T. Rose, and J. Unsleber
   
 * started run on 2026/04/17 at 12:14:27.403     

           -------------------------------------------------
          |                Calculation Setup                |
           -------------------------------------------------

          program call               : /usr/bin/xtb zigzag_chain12_d1.70_m1_XTB.xyz --grad -c 0 -u 0 -P 1 --namespace zigzag_chain12_d1.70_m1 --input zigzag_chain12_d1.70_m1_XTB.input.tmp --acc 0.200000
          calculation namespace      : zigzag_chain12_d1.70_m1
          coordinate file            : zigzag_chain12_d1.70_m1_XTB.xyz
          omp threads                :                     1

   ID    Z sym.   atoms
    1    5 B      1-12

           -------------------------------------------------
          |                 G F N 2 - x T B                 |
           -------------------------------------------------

        Reference                      10.1021/acs.jctc.8b01176
      * Hamiltonian:
        H0-scaling (s, p, d)           1.850000    2.230000    2.230000
        zeta-weighting                 0.500000
      * Dispersion:
        s8                             2.700000
        a1                             0.520000
        a2                             5.000000
        s9                             5.000000
      * Repulsion:
        kExp                           1.500000    1.000000
        rExp                           1.000000
      * Coulomb:
        alpha                          2.000000
        third order                    shell-resolved
        anisotropic                    true
        a3                             3.000000
        a5                             4.000000
        cn-shift                       1.200000
        cn-exp                         4.000000
        max-rad                        5.000000

q/qsh data taken from xtbrestart
CAMM data taken from xtbrestart

          ...................................................
          :                      SETUP                      :
          :.................................................:
          :  # basis functions                  48          :
          :  # atomic orbitals                  48          :
          :  # shells                           24          :
          :  # electrons                        36          :
          :  max. iterations                   250          :
          :  Hamiltonian                  GFN2-xTB          :
          :  restarted?                       true          :
          :  GBSA solvation                  false          :
          :  PC potential                    false          :
          :  electronic temp.          300.0000000     K    :
          :  accuracy                    0.2000000          :
          :  -> integral cutoff          0.3198970E+02      :
          :  -> integral neglect         0.2000000E-08      :
          :  -> SCF convergence          0.2000000E-06 Eh   :
          :  -> wf. convergence          0.2000000E-04 e    :
          :  Broyden damping             0.4000000          :
          ...................................................

 iter      E             dE          RMSdq      gap      omega  full diag
   1    -13.3251971 -0.133252E+02  0.798E-01    0.14       0.0  T
   2    -13.3015521  0.236449E-01  0.110E+00    0.10       1.0  T
   3    -13.2785314  0.230208E-01  0.133E+00    0.16       1.0  T
   4    -12.9379495  0.340582E+00  0.384E+00    0.25       1.0  T
   5    -13.2787211 -0.340772E+00  0.118E+00    0.13       1.0  T
   6    -13.2733243  0.539680E-02  0.133E+00    0.17       1.0  T
   7    -13.3136501 -0.403258E-01  0.675E-01    0.15       1.0  T
   8    -13.3182014 -0.455122E-02  0.516E-01    0.15       1.0  T
   9    -13.3243753 -0.617393E-02  0.281E-01    0.12       1.0  T
  10    -13.3252030 -0.827673E-03  0.196E-01    0.13       1.0  T
  11    -13.3254814 -0.278473E-03  0.159E-01    0.14       1.0  T
  12    -13.3259622 -0.480754E-03  0.955E-02    0.13       1.0  T
  13    -13.3258005  0.161693E-03  0.119E-01    0.13       1.0  T
  14    -13.3259736 -0.173096E-03  0.669E-02    0.13       1.0  T
  15    -13.3259986 -0.250444E-04  0.565E-02    0.13       1.0  T
  16    -13.3260268 -0.281400E-04  0.422E-02    0.13       1.0  T
  17    -13.3260459 -0.190863E-04  0.311E-02    0.13       1.0  T
  18    -13.3260509 -0.498253E-05  0.266E-02    0.13       1.1  T
  19    -13.3260612 -0.103340E-04  0.113E-02    0.13       2.6  T
  20    -13.3260625 -0.131473E-05  0.243E-03    0.13      11.9  T
  21    -13.3260626 -0.551172E-07  0.172E-03    0.13      16.8  T
  22    -13.3260626 -0.656341E-07  0.742E-04    0.13      38.9  T
  23    -13.3260626 -0.720091E-08  0.337E-04    0.13      85.7  T
  24    -13.3260626 -0.179622E-08  0.635E-05    0.13     454.8  T
  25    -13.3260626 -0.553673E-10  0.506E-05    0.13     570.7  T

   *** convergence criteria satisfied after 25 iterations ***

         #    Occupation            Energy/Eh            Energy/eV
      -------------------------------------------------------------
         1        2.0000           -0.3915768             -10.6553
       ...           ...                  ...                  ...
        12        2.0000           -0.2684533              -7.3050
        13        2.0000           -0.2664355              -7.2501
        14        2.0000           -0.2611443              -7.1061
        15        2.0000           -0.2580275              -7.0213
        16        1.9999           -0.2552592              -6.9460
        17        1.9906           -0.2512911              -6.8380
        18        1.8571           -0.2486446              -6.7660 (HOMO)
        19        0.1522           -0.2438357              -6.6351 (LUMO)
        20        0.0003           -0.2378535              -6.4723
        21        0.0000           -0.2329552              -6.3390
        22                         -0.2245686              -6.1108
        23                         -0.2210319              -6.0146
       ...                                ...                  ...
        48                          0.2411258               6.5614
      -------------------------------------------------------------
                  HL-Gap            0.0048089 Eh            0.1309 eV
             Fermi-level           -0.2462078 Eh           -6.6997 eV

 SCC (total)                   0 d,  0 h,  0 min,  0.035 sec
 SCC setup                      ...        0 min,  0.000 sec (  0.442%)
 Dispersion                     ...        0 min,  0.000 sec (  0.246%)
 classical contributions        ...        0 min,  0.000 sec (  0.094%)
 integral evaluation            ...        0 min,  0.002 sec (  6.383%)
 iterations                     ...        0 min,  0.028 sec ( 78.803%)
 molecular gradient             ...        0 min,  0.005 sec ( 13.106%)
 printout                       ...        0 min,  0.000 sec (  0.864%)

         :::::::::::::::::::::::::::::::::::::::::::::::::::::
         ::                     SUMMARY                     ::
         :::::::::::::::::::::::::::::::::::::::::::::::::::::
         :: total energy             -13.309241794546 Eh    ::
         :: gradient norm              0.426581687666 Eh/a0 ::
         :: HOMO-LUMO gap              0.130857142595 eV    ::
         ::.................................................::
         :: SCC energy               -13.326062628980 Eh    ::
         :: -> isotropic ES            0.080021018952 Eh    ::
         :: -> anisotropic ES          0.003275489088 Eh    ::
         :: -> anisotropic XC         -0.048553516848 Eh    ::
         :: -> dispersion             -0.009542198062 Eh    ::
         :: repulsion energy           0.016973764603 Eh    ::
         :: add. restraining           0.000000000000 Eh    ::
         :: total charge               0.000000000000 e     ::
         :::::::::::::::::::::::::::::::::::::::::::::::::::::


Property printout bound to 'properties.out'

           -------------------------------------------------
          | TOTAL ENERGY              -13.309241794546 Eh   |
          | GRADIENT NORM               0.426581687666 Eh/α |
          | HOMO-LUMO GAP               0.130857142595 eV   |
           -------------------------------------------------

------------------------------------------------------------------------
 * finished run on 2026/04/17 at 12:14:27.450     
------------------------------------------------------------------------
 total:
 * wall-time:     0 d,  0 h,  0 min,  0.047 sec
 *  cpu-time:     0 d,  0 h,  0 min,  0.046 sec
 * ratio c/w:     0.985 speedup
 SCF:
 * wall-time:     0 d,  0 h,  0 min,  0.035 sec
 *  cpu-time:     0 d,  0 h,  0 min,  0.035 sec
 * ratio c/w:     0.982 speedup


-------------------------   --------------------
FINAL SINGLE POINT ENERGY       -13.309241794550
-------------------------   --------------------


-------------
DIPOLE MOMENT
-------------
                                X             Y             Z
Total Dipole Moment    :      0.00000       0.00000       0.00000
                        -----------------------------------------
Magnitude (a.u.)       :      0.00000
Magnitude (Debye)      :      0.00000


------------------
CARTESIAN GRADIENT
------------------

   1   B   :   -0.077442278    0.064388717   -0.000000000
[...]
          :  accuracy                    0.2000000          :
          :  -> integral cutoff          0.3198970E+02      :
          :  -> integral neglect         0.2000000E-08      :
          :  -> SCF convergence          0.2000000E-06 Eh   :
          :  -> wf. convergence          0.2000000E-04 e    :
          :  Broyden damping             0.4000000          :
          ...................................................

 iter      E             dE          RMSdq      gap      omega  full diag
   1    -14.3863363 -0.143863E+02  0.978E-01    0.06       0.0  T
   2    -14.3862033  0.132988E-03  0.613E-01    0.06       1.0  T
   3    -14.3542148  0.319885E-01  0.985E-01    0.05       1.0  T
   4    -14.3768604 -0.226456E-01  0.498E-01    0.05       1.0  T
   5    -14.3862443 -0.938394E-02  0.715E-02    0.06       1.0  T
   6    -14.3862719 -0.275364E-04  0.595E-02    0.05       1.0  T
   7    -14.3863402 -0.683500E-04  0.341E-02    0.05       1.0  T
   8    -14.3863631 -0.228983E-04  0.182E-02    0.05       1.6  T
   9    -14.3863677 -0.460535E-05  0.757E-03    0.05       3.8  T
  10    -14.3863688 -0.104198E-05  0.308E-03    0.05       9.4  T
  11    -14.3863689 -0.123073E-06  0.145E-03    0.05      19.9  T
  12    -14.3863689  0.149446E-07  0.151E-03    0.05      19.1  T
  13    -14.3863689 -0.132421E-07  0.112E-03    0.05      25.8  T
  14    -14.3863689 -0.135135E-07  0.518E-04    0.05      55.7  T
  15    -14.3863689 -0.378680E-08  0.296E-04    0.05      97.5  T
  16    -14.3863689 -0.102213E-08  0.164E-04    0.05     176.2  T
  17    -14.3863689  0.730527E-10  0.142E-04    0.05     203.8  T

   *** convergence criteria satisfied after 17 iterations ***

         #    Occupation            Energy/Eh            Energy/eV
      -------------------------------------------------------------
         1        2.0000           -0.4190935             -11.4041
       ...           ...                  ...                  ...
        12        2.0000           -0.2948798              -8.0241
        13        2.0000           -0.2921917              -7.9509
        14        2.0000           -0.2810180              -7.6469
        15        2.0000           -0.2697724              -7.3409
        16        2.0000           -0.2592812              -7.0554
        17        2.0000           -0.2580717              -7.0225
        18        1.4860           -0.2403470              -6.5402 (HOMO)
        19        0.5140           -0.2383299              -6.4853 (LUMO)
        20                         -0.2091307              -5.6907
        21                         -0.2047713              -5.5721
        22                         -0.1997019              -5.4342
        23                         -0.1993777              -5.4253
       ...                                ...                  ...
        48                          1.3751897              37.4208
      -------------------------------------------------------------
                  HL-Gap            0.0020171 Eh            0.0549 eV
             Fermi-level           -0.2393384 Eh           -6.5127 eV

 SCC (total)                   0 d,  0 h,  0 min,  0.026 sec
 SCC setup                      ...        0 min,  0.000 sec (  0.686%)
 Dispersion                     ...        0 min,  0.000 sec (  0.456%)
 classical contributions        ...        0 min,  0.000 sec (  0.147%)
 integral evaluation            ...        0 min,  0.002 sec (  8.695%)
 iterations                     ...        0 min,  0.018 sec ( 69.818%)
 molecular gradient             ...        0 min,  0.005 sec ( 18.798%)
 printout                       ...        0 min,  0.000 sec (  1.294%)

         :::::::::::::::::::::::::::::::::::::::::::::::::::::
         ::                     SUMMARY                     ::
         :::::::::::::::::::::::::::::::::::::::::::::::::::::
         :: total energy             -14.099500199098 Eh    ::
         :: gradient norm              0.007299130479 Eh/a0 ::
         :: HOMO-LUMO gap              0.054889119347 eV    ::
         ::.................................................::
         :: SCC energy               -14.386368892862 Eh    ::
         :: -> isotropic ES            0.111239059420 Eh    ::
         :: -> anisotropic ES          0.001574851981 Eh    ::
         :: -> anisotropic XC         -0.039602095989 Eh    ::
         :: -> dispersion             -0.008693703108 Eh    ::
         :: repulsion energy           0.287012158333 Eh    ::
         :: add. restraining           0.000000000000 Eh    ::
         :: total charge               0.000000000000 e     ::
         :::::::::::::::::::::::::::::::::::::::::::::::::::::


Property printout bound to 'properties.out'

           -------------------------------------------------
          | TOTAL ENERGY              -14.099500199098 Eh   |
          | GRADIENT NORM               0.007299130479 Eh/α |
          | HOMO-LUMO GAP               0.054889119347 eV   |
           -------------------------------------------------

------------------------------------------------------------------------
 * finished run on 2026/04/17 at 12:14:30.482     
------------------------------------------------------------------------
 total:
 * wall-time:     0 d,  0 h,  0 min,  0.039 sec
 *  cpu-time:     0 d,  0 h,  0 min,  0.039 sec
 * ratio c/w:     0.999 speedup
 SCF:
 * wall-time:     0 d,  0 h,  0 min,  0.026 sec
 *  cpu-time:     0 d,  0 h,  0 min,  0.026 sec
 * ratio c/w:     0.992 speedup


-------------------------   --------------------
FINAL SINGLE POINT ENERGY       -14.099500199100
-------------------------   --------------------


-------------
DIPOLE MOMENT
-------------
                                X             Y             Z
Total Dipole Moment    :      0.00300       0.01700       0.01300
                        -----------------------------------------
Magnitude (a.u.)       :      0.02161
Magnitude (Debye)      :      0.05493


------------------
CARTESIAN GRADIENT
------------------

   1   B   :    0.000904158   -0.004135265    0.000195600
   2   B   :    0.000540318    0.003857240   -0.000313457
   3   B   :   -0.001399141    0.000705097    0.000443251
   4   B   :    0.000274695   -0.001019526   -0.000629984
   5   B   :    0.000161471    0.001030772    0.000325266
   6   B   :    0.000079265   -0.000163969    0.000070111
   7   B   :   -0.000438970    0.000127116   -0.000209931
   8   B   :   -0.000131960   -0.000916038    0.000361578
   9   B   :    0.000871882    0.001236038   -0.000385138
  10   B   :    0.000942302   -0.000373263    0.000218781
  11   B   :   -0.001633303   -0.002060510   -0.000156654
  12   B   :   -0.000170717    0.001712309    0.000080576

Difference to translation invariance:
           :   -0.0000000000    0.0000000000   -0.0000000000

Difference to rotation invariance:
           :   -0.0000000065    0.0000000006   -0.0000000063

Norm of the Cartesian gradient     ...    0.0072991305
RMS gradient                       ...    0.0012165217
MAX gradient                       ...    0.0041352645
------------------------------------------------------------------------------
                         ORCA GEOMETRY RELAXATION STEP
------------------------------------------------------------------------------

Reading the OPT-File                    .... done
Getting information on internals        .... done
Copying old internal coords+grads       .... done
Making the new internal coordinates     .... (2022 redundants) done
Validating the new internal coordinates .... (2022 redundants) done
Calculating the B-matrix                .... done
Calculating the G,G- and P matrices     .... done
Transforming gradient to internals      .... done
Projecting the internal gradient        .... done
Number of atoms                         ....  12
Number of internal coordinates          ....  42
Current Energy                          ....   -14.099500199 Eh
Current gradient norm                   ....     0.007299130 Eh/bohr
Maximum allowed component of the step   ....  0.300
Current trust radius                    ....  0.150
Updating the Hessian (BFGS)             .... done
Forming the augmented Hessian           .... done
Diagonalizing the augmented Hessian     .... done
Last element of RFO vector              ....  0.815337756
Lowest eigenvalues of augmented Hessian:
 -0.000236744  0.000000000  0.000116902  0.000940206  0.001878113
Length of the computed step             ....  0.710117508
Warning: the length of the step is outside the trust region - taking restricted step instead
The input lambda is                     ....    -0.001000
   iter:   5  x=   -0.001254  g=   29.703792 f(x)=     0.000000
The output lambda is                    ....    -0.001254 (6 iterations)
The final length of the internal step   ....  0.150000000
Converting the step to Cartesian space:
 Initial RMS(Int)=    0.0231455025
Transforming coordinates:
 Iter   0:  RMS(Cart)=    0.0311358380 RMS(Int)=    0.9623206676
 Iter   5:  RMS(Cart)=    0.0009709053 RMS(Int)=    0.0002912046
 Iter  10:  RMS(Cart)=    0.0000082968 RMS(Int)=    0.0000033626
 Iter  15:  RMS(Cart)=    0.0000000539 RMS(Int)=    0.0000000429
done
Storing new coordinates                 .... done
The predicted energy change is          ....    -0.000081829
Previously predicted energy change      ....    -0.000056461
Actually observed energy change         ....     0.000000557
Ratio of predicted to observed change   ....     0.009863573
New trust radius                        ....     0.100000000

                                .--------------------.
          ----------------------|Geometry convergence|-------------------------
          Item                value                   Tolerance       Converged
          ---------------------------------------------------------------------
          Energy change       0.0000005569            0.0000010000      YES
          RMS gradient        0.0008270002            0.0000300000      NO
          MAX gradient        0.0030608635            0.0001000000      NO
          RMS step            0.0231455025            0.0006000000      NO
          MAX step            0.1192186899            0.0010000000      NO
          -------------------------------------------------------------------------
          ........................................................
          Max(Bonds)      0.0032      Max(Angles)    6.83
          Max(Dihed)        2.16      Max(Improp)    0.00
          ---------------------------------------------------------------------

The optimization has not yet converged - more geometry cycles are needed


    ---------------------------------------------------------------------------
                         Redundant Internal Coordinates
                            (Angstroem and degrees)

        Definition                    Value    dE/dq     Step     New-Value
    ----------------------------------------------------------------------------
     1. B(B   1,B   0)                1.4307 -0.003061  0.0029    1.4336   
     2. B(B   2,B   1)                1.5957 -0.001063  0.0026    1.5984   
     3. B(B   2,B   0)                1.5938 -0.001055  0.0032    1.5970   
     4. B(B   3,B   2)                1.5612 -0.000059 -0.0002    1.5610   
     5. B(B   4,B   3)                1.5103 -0.000315  0.0010    1.5113   
     6. B(B   5,B   4)                1.5124 -0.000448  0.0007    1.5131   
     7. B(B   6,B   5)                1.5245 -0.000529  0.0001    1.5246   
     8. B(B   7,B   6)                1.5129 -0.000095  0.0005    1.5135   
     9. B(B   8,B   7)                1.5109  0.000019  0.0007    1.5116   
    10. B(B   9,B   8)                1.5594 -0.000905  0.0008    1.5602   
    11. B(B  10,B   9)                1.5928 -0.001677  0.0009    1.5937   
    12. B(B  11,B  10)                1.4329 -0.001244  0.0010    1.4339   
    13. B(B  11,B   9)                1.5960 -0.000449  0.0022    1.5982   
    14. A(B   1,B   0,B   2)           63.42  0.000391   -0.03     63.39   
    15. A(B   0,B   1,B   2)           63.28  0.000393    0.01     63.30   
    16. A(B   0,B   2,B   1)           53.30 -0.000784    0.01     53.31   
    17. A(B   1,B   2,B   3)          151.60 -0.000263    0.62    152.21   
    18. A(B   0,B   2,B   3)          155.10  0.001047   -0.62    154.48   
    19. L(B   2,B   3,B   4,B   1, 2) 183.50  0.000172   -2.61    180.89   
    20. L(B   2,B   3,B   4,B   1, 1) 178.14 -0.000154    0.45    178.60   
    21. A(B   3,B   4,B   5)          175.19 -0.001643    0.70    175.89   
    22. L(B   4,B   5,B   6,B   3, 2) 178.57 -0.000025    0.24    178.80   
    23. L(B   4,B   5,B   6,B   3, 1) 178.35 -0.000409    0.21    178.56   
    24. L(B   5,B   6,B   7,B   8, 2) 176.64  0.000019    0.74    177.39   
    25. L(B   5,B   6,B   7,B   8, 1) 177.85 -0.000559    0.12    177.97   
    26. A(B   6,B   7,B   8)          175.06 -0.001667    0.60    175.67   
    27. L(B   7,B   8,B   9,B  10, 2) 177.69 -0.000138    6.83    184.52   
    28. L(B   7,B   8,B   9,B  10, 1) 177.34 -0.000353    0.24    177.58   
    29. A(B  10,B   9,B  11)           53.40 -0.000108   -0.02     53.39   
    30. A(B   8,B   9,B  11)          156.38  0.001176   -0.68    155.71   
    31. A(B   8,B   9,B  10)          150.21 -0.001068    0.64    150.85   
    32. A(B   9,B  10,B  11)           63.41  0.000460    0.06     63.47   
    33. A(B   9,B  11,B  10)           63.19 -0.000352   -0.04     63.15   
    34. D(B   3,B   2,B   0,B   1)    179.69 -0.000067   -0.95    178.75   
    35. D(B   3,B   2,B   1,B   0)   -179.73  0.000047    0.82   -178.90   
    36. D(B   5,B   4,B   2,B   0)    178.98  0.000046    1.46    180.44   
    37. D(B   5,B   4,B   2,B   1)      0.38  0.000055    1.46      1.84   
    38. D(B   8,B   7,B   4,B   3)    178.05  0.000060   -0.02    178.02   
    39. D(B  11,B   9,B   7,B   6)   -179.98  0.000010    1.40   -178.58   
    40. D(B  10,B   9,B   7,B   6)      1.73  0.000092    2.16      3.89   
    41. D(B  11,B  10,B   9,B   8)    179.86  0.000036    1.14    181.00   
    42. D(B  10,B  11,B   9,B   8)   -179.83 -0.000030   -1.66   -181.49   
    ----------------------------------------------------------------------------

Geometry step timings:
Preparation and reading OPT file:      0.000 s ( 1.877 %)
Internal coordinates            :      0.000 s ( 1.779 %)
B/P matrices and projection     :      0.000 s (20.208 %)
Hessian update/contruction      :      0.000 s (19.763 %)
Making the step                 :      0.001 s (25.148 %)
Converting the step to Cartesian:      0.000 s ( 6.621 %)
Storing new data                :      0.000 s ( 2.470 %)
Checking convergence            :      0.000 s ( 2.767 %)
Final printing                  :      0.000 s (19.368 %)
Total time                      :      0.002 s

Time for energy+gradient        :      0.061 s
Time for complete geometry iter :      0.064 s




    ----------------------------------------------------------------------------
                                  WARNING !!!
       The optimization did not converge but reached the maximum number of
       optimization cycles.
       Please check your results very carefully.
    ----------------------------------------------------------------------------



--------------------------------
SUGGESTED CITATIONS FOR THIS RUN
--------------------------------

Below you find a list of papers that are relevant to this ORCA run
We neither can nor want to force you to cite these papers, but we appreciate if you do
You receive ORCA, which is the product of decades of hard work by many enthusiastic individuals, for free
The only thing we kindly ask in return is that you cite our papers,
We deeply appreciate it, if you show your appreciation for ORCA by not just citing the generic ORCA reference.

Please note that relegating all ORCA citations to the supporting information does *not* help us.
SI sections are not indexed - citations you put there will not count into any citation statistics
But we need these citations in order to attract the funding resources that allow us to do what we are doing

Therefore, if you are a happy ORCA user, please consider citing a few of the papers listed below in the main body of your paper

In addition to the list printed below, the program has created the file zigzag_chain12_d1.70_m1.bibtex that contains the list in bibtex format
You can import this file easily into all common literature databanks and citation aid programs

It goes without saying that in many instances, there are alternative algorithms to achieve similar
results as the ones you have gotten from ORCA. It is, of course, also the case that in some instances
ORCA just re-implements algorithms worked out by others. We are fully aware of that and we are also
fully appreciative of our colleagues work. Hence this citation list should not be read as indicating
that the listed papers, which are focused on our own work, are the only ones worth citing. It simply
meant to make it easier for users to cite ORCA specific papers. It is not a substitute for doing your
own literature research and citing the relevant literature in a scientifically appropriate manner.

List of essential papers. We consider these as the minimum necessary citations

  1. Bannwarth, C.; Ehlert, S.; Grimme, S.
     GFN2-xTB—An Accurate and Broadly Parametrized Self-Consistent Tight-Binding Quantum Chemical Method with Multipole Electrostatics and Density-Dependent Dispersion Contributions
     J. Chem. Theory Comput. 2019 15(3), 1652-1671
     doi.org/10.1021/acs.jctc.8b01176
  2. Neese, F.
     Software update: the ORCA program system, version 6.0
     WIRES Comput. Molec. Sci. 2025 15(1), e70019
     doi.org/10.1002/wcms.70019

List of papers to cite with high priority. The work reported in these papers was absolutely
necessary for this run to complete.
Our perspective: the developers of density functionals and basis sets usually get cited in chemistry papers
Good! But without the algorithms to do something with them, the functionals or basis sets would not do anything.
Hence, in our opinion, the algorithm design and method developments papers are equally worthy of getting cited

  1. Bannwarth, C.; Caldeweyher, E.; Ehlert, S.; Hansen, A.; Pracht, P.; Seibert, J.; Spicher, S.; Grimme, S.
     Extended tight-binding quantum chemistry methods
     WIRES Comput. Molec. Sci. 2020 11(2), e1493
     doi.org/10.1002/wcms.1493

List of suggested additional citations. These are papers that are important in the 'surrounding' of 
of this run, or papers that preceded the highly important papers. If you like your results we are grateful for a citation.

  1. Neese, F.
     The ORCA program system
     WIRES Comput. Molec. Sci. 2012 2(1), 73-78
     doi.org/10.1002/wcms.81
  2. Neese, F.
     Software update: the ORCA program system, version 4.0
     WIRES Comput. Molec. Sci. 2018 8(1), 1-6
     doi.org/10.1002/wcms.1327
  3. Neese, F.; Wennmohs, F.; Becker, U.; Riplinger, C.
     The ORCA quantum chemistry program package
     J. Chem. Phys. 2020 152(22), 224108
     doi.org/10.1063/5.0004608
  4. Neese, F.
     Software update: The ORCA program system—Version 5.0
     WIRES Comput. Molec. Sci. 2022 12(1), e1606
     doi.org/10.1002/wcms.1606

List of optional additional citations

  1. Neese, F.
     Approximate second-order SCF convergence for spin unrestricted wavefunctions
     Chem. Phys. Lett. 2000 325(1-3), 93-98
     doi.org/10.1016/s0009-2614(00)00662-x

Timings for individual modules:

Sum of individual times          ...        2.916 sec (=   0.049 min)
Geometry relaxation              ...        0.211 sec (=   0.004 min)   7.2 %
XTB module                       ...        2.705 sec (=   0.045 min)  92.8 %
                             ****ORCA TERMINATED NORMALLY****
TOTAL RUN TIME: 0 days 0 hours 0 minutes 3 seconds 452 msec
