
                                 *****************
                                 * O   R   C   A *
                                 *****************

                                            #,                                       
                                            ###                                      
                                            ####                                     
                                            #####                                    
                                            ######                                   
                                           ########,                                 
                                     ,,################,,,,,                         
                               ,,#################################,,                 
                          ,,##########################################,,             
                       ,#########################################, ''#####,          
                    ,#############################################,,   '####,        
                  ,##################################################,,,,####,       
                ,###########''''           ''''###############################       
              ,#####''   ,,,,##########,,,,          '''####'''          '####       
            ,##' ,,,,###########################,,,                        '##       
           ' ,,###''''                  '''############,,,                           
         ,,##''                                '''############,,,,        ,,,,,,###''
      ,#''                                            '''#######################'''  
     '                                                          ''''####''''         
             ,#######,   #######,   ,#######,      ##                                
            ,#'     '#,  ##    ##  ,#'     '#,    #''#        ,####,    ,#,          
            ##       ##  ##   ,#'  ##            #'  '#       #'       ,# #          
            ##       ##  #######   ##           ,######,      #####,      #          
            '#,     ,#'  ##    ##  '#,     ,#' ,#      #,     #,   #      #          
             '#######'   ##     ##  '#######'  #'      '#     '####' #    #          



                #########################################################
                #                        -***-                          #
                #          Department of theory and spectroscopy        #
                #                                                       #
                #                      Frank Neese                      #
                #                                                       #
                #     Directorship, Architecture, Infrastructure        #
                #                    SHARK, DRIVERS                     #
                #        Core code/Algorithms in most modules           #
                #                                                       #
                #        Max Planck Institute fuer Kohlenforschung      #
                #                Kaiser Wilhelm Platz 1                 #
                #                 D-45470 Muelheim/Ruhr                 #
                #                      Germany                          #
                #                                                       #
                #                  All rights reserved                  #
                #                        -***-                          #
                #########################################################


                         Program Version 6.1.1  -  RELEASE   -
                                (GIT: $487d211c$)
                          ($2025-11-21 10:33:24 +0100$)
                                                                         
                                  - NO-DMRG VERSION -                    
                                                                         


 With contributions from (in alphabetic order):
[Max-Planck-Institut fuer Kohlenforschung]                               
  Daniel Aravena         : Magnetic Suceptibility                        
  Michael Atanasov       : Ab Initio Ligand Field Theory (pilot matlab implementation)
  Alexander A. Auer      : GIAO ZORA, VPT2 properties, NMR spectrum      
  Ute Becker             : All parallelization in ORCA, NUMFREQ, NUMCALC 
  Giovanni Bistoni       : ED, misc. LED, open-shell LED, HFLD           
  Dmytro Bykov           : pre 5.0 version of the SCF Hessian            
  Marcos Casanova-Páez   : Triplet and SCS-CIS(D). UHF-(DLPNO)-IP/EA/STEOM-CCSD. UHF-CVS-IP/STEOM-CCSD   
  Vijay G. Chilkuri      : MRCI spin determinant printing, contributions to CSF-ICE 
  Pauline Colinet        : FMM embedding                                 
  Dipayan Datta          : RHF DLPNO-CCSD density                        
  Achintya Kumar Dutta   : EOM-CC, STEOM-CC                              
  Nicolas Foglia         : Exact transition moments, OPA infrastructure, MCD improvements    
  Dmitry Ganyushin       : Spin-Orbit,Spin-Spin,Magnetic field MRCI      
  Miquel Garcia-Rates    : C-PCM and meta-GGA Hessian, CCSD/C-PCM, Gaussian charge scheme 
  Tiago L. C. Gouveia    : GS-ROHF, GS-ROCIS                             
  Yang Guo               : DLPNO-NEVPT2, F12-NEVPT2, CIM, IAO-localization        
  Andreas Hansen         : Spin unrestricted coupled pair/coupled cluster methods 
  Ingolf Harden          : AUTO-CI MPn and infrastructure                
  Benjamin Helmich-Paris : MC-RPA, TRAH-(SCF,CASSCF), AVAS, COSX integrals, SCF dyn. polar., MC-PDFT, srDFT 
  Lee Huntington         : MR-EOM, pCC                                   
  Robert Izsak           : Overlap fitted RIJCOSX, COSX-SCS-MP3, EOM     
  Riya Kayal             : Wick's Theorem for AUTO-CI, AUTO-CI UHF-CCSDT 
  Emily Kempfer          : AUTO-CI RHF CISDT and CCSDT, approximate NEVPT4
  Christian Kollmar      : KDIIS, OOCD, Brueckner-CCSD(T), CCSD density, CASPT2, CASPT2-K, improved NEVPT2 
  Axel Koslowski         : Symmetry handling                             
  Simone Kossmann        : meta-GGA functionals, TD-DFT gradient, OOMP2, (MP2 Hessian; deprecated post 5.0) 
  Lucas Lang             : DCDCAS, Hyperfine gauge corrections, ICE-SOC+SSC
  Marvin Lechner         : AUTO-CI (C++ implementation), FIC-MRCC        
  Spencer Leger          : CASSCF response                               
  Dagmar Lenk            : GEPOL surface, SMD, ORCA-2-JSON               
  Dimitrios Liakos       : Extrapolation schemes; Compound Job, Property file
  Dimitrios Manganas     : Further ROCIS development; embedding schemes. LFT, Crystal Embedding 
  Dimitrios Pantazis     : SARC Basis sets                               
  Anastasios Papadopoulos: AUTO-CI, single reference methods and gradients 
  Taras Petrenko         : pre 6.0 DFT Hessian and TD-DFT gradient,  ECA, NRVS 
  Petra Pikulova         : Analytic Raman intensities                    
  Peter Pinski           : DLPNO-MP2, DLPNO-MP2 Gradient                 
  Shashank Vittal Rao    : ES-AILFT, MagRelax                            
  Christoph Reimann      : Effective Core Potentials                     
  Marius Retegan         : Local ZFS, SOC                                
  Christoph Riplinger    : Optimizer, TS searches, QM/MM, DLPNO-CCSD(T), (RO)-DLPNO pert. Triples 
  Michael Roemelt        : Original ROCIS implementation, recursive CI coupling coefficients
  Masaaki Saitow         : Open-shell DLPNO-CCSD energy and density      
  Barbara Sandhoefer     : DKH picture change effects                    
  Yorick L. A. Schmerwitz: GMF and freeze-and-release deltaSCF, NEB S-IDPP initial path                    
  Kantharuban Sivalingam : CASSCF convergence/infrastructure, NEVPT2, NEVPT3, NEVPT4(SD), FIC-MRCI and CEPA variants
  Bernardo de Souza      : ESD, SOC TD-DFT                               
  Georgi L. Stoychev     : AutoAux, RI-MP2 NMR, DLPNO-MP2 response, X2C  
  Van Anh Tran           : RI-MP2 g-tensors                              
  Willem Van den Heuvel  : Paramagnetic NMR                              
  Zikuan Wang            : NOTCH, Electric field optimization            
  Frank Wennmohs         : Technical directorship and infrastructure     
  Hang Xu                : AUTO-CI-Response properties                   
                                                                         
[FACCTs GmbH]                                                            
  Markus Bursch, Nicolas Foglia, Miquel Garcia-Rates, Ingolf Harden, Hagen Neugebauer, Anastasios Papadopoulos, 
  Christoph Riplinger, Bernardo de Souza, Georgi L. Stoychev                                                    
                                                                 
  APM, various basis sets, CI-OPT, improved COSX, DLPNO-Multilevel,           
  DOCKER, DRACO, updates on ESD, Fragmentator, GOAT, IRC, LR-CPCM, L-BFGS, MBIS, meta-GGA TD-DFT gradient, ML-optimized integration grids, 
  MM, NACMEs, nearIR, NEB, NEB-TS, NL-DFT gradient (VV10), 2- and 3-layer-ONIOM, interface openCOSMO-RS, QMMM,   
  Crystal-QMMM, RESP, rigid body optimization, SF, symmetry and pop. for TD-DFT, various functionals, SOLVATOR                                   
                                                                         
[Other institutions]                                                     
  V. Asgeirsson          : NEB                                           
  Christoph Bannwarth    : sTDA-DFT, sTD-DFT, PBEh-3c, B97-3c, D3        
  Giovanni Bistoni       : ETS/NOCV, ADLD/ADEX, COVALED                  
  Martin Brehm           : Molecular dynamics                            
  Ronald Cardenas        : ETS/NOCV                                      
  Martina Colucci        : COVALED                                       
  Sebastian Ehlert       : rSCAN, r2SCAN, r2SCAN-3c, D4, dhf basis sets  
  Marvin Friede          : D4 for Fr, Ra, Ac-Lr                          
  Lars Goerigk           : TD-DFT with DH, B97 family of functionals     
  Stefan Grimme          : VdW corrections, initial TS optimization, DFT functionals, gCP, sTDA/sTD-DF 
  Waldemar Hujo          : DFT-NL                                        
  H. Jonsson             : NEB                                           
  Holger Kruse           : gCP                                           
  Marcel Mueller         : wB97X-3c, vDZP basis set                      
  Hagen Neugebauer       : wr2SCAN, Native XTB                           
  Gianluca Regni         : ADLD/ADEX                                     
  Tobias Risthaus        : pre 6.0 range-separated hybrid DFT and stability analysis
  Lukas Wittmann         : regularized MP2, r2SCAN double-hybrids, wr2SCAN        
                                                                         
We gratefully acknowledge several colleagues who have allowed us to      
interface, adapt or use parts of their codes:                            
  Ed Valeev, F. Pavosevic, A. Kumar             : LibInt (2-el integral package), F12 methods 
  Garnet Chan, S. Sharma, J. Yang, R. Olivares  : DMRG                   
  Ulf Ekstrom                                   : XCFun DFT Library      
  Mihaly Kallay                                 : mrcc  (arbitrary order and MRCC methods)
  Frank Weinhold                                : gennbo (NPA and NBO analysis)           
  Simon Mueller                                 : openCOSMO-RS                            
  Christopher J. Cramer and Donald G. Truhlar   : smd solvation model                     
  S Lehtola, MJT Oliveira, MAL Marques          : LibXC Library                           
  Liviu Ungur et al                             : ANISO software                          


 Your calculation uses the libint2 library for the computation of 2-el integrals
 For citations please refer to: http://libint.valeyev.net

 Your ORCA version has been built with support for libXC version: 7.0.0
 For citations please refer to: https://libxc.gitlab.io

 This ORCA versions uses:
   CBLAS   interface :  Fast vector & matrix operations
   LAPACKE interface :  Fast linear algebra routines
   SCALAPACK package :  Parallel linear algebra routines
   Shared memory     :  Shared parallel matrices
   BLAS/LAPACK       :  OpenBLAS 0.3.29  USE64BITINT DYNAMIC_ARCH NO_AFFINITY Zen SINGLE_THREADED
        Core in use  :  Zen
   Copyright (c) 2011-2014, The OpenBLAS Project


  ***********************************
  * Starting time: Fri Apr 17 12:14:29 2026
  * Host name:     vmi3233575
  * Process ID:    335691
  * Working dir.:  /root/orca_b12_vps_pack/jobs/01_xtb/mult_3
  ***********************************

NOTE: MaxCore=500 MB was set to SCF,MP2,MDCI,CIPSI,MRCI,RASCI and CIS
      => If you want to overwrite this, your respective input block should be placed after the MaxCore statement


***************************************
The coordinates will be read from file: ../../../starts/double_ring_6_6_d1.70.xyz
***************************************


Your calculation utilizes the semiempirical GFN2-xTB method
Please cite in your paper:
Bannwarth, C.; Ehlert S.; Grimme, S. J. Chem. Theory Comput. 2019, 15, 1652.
   

================================================================================

================================================================================
                                        WARNINGS
                       Please study these warnings very carefully!
================================================================================


WARNING: Geometry Optimization
  ===> : Switching off AutoStart
         For restart on a previous wavefunction, please use MOREAD

WARNING: Found dipole moment calculation with XTB calculation
  ===> : Switching off dipole moment calculation

Environment variable XTBEXE for xtb has been set!

================================================================================
                                       INPUT FILE
================================================================================
NAME = double_ring_6_6_d1.70_m3.inp
|  1> ! GFN2-xTB TightSCF TightOpt
|  2> 
|  3> %pal
|  4>   nprocs 1
|  5> end
|  6> 
|  7> %maxcore 500
|  8> 
|  9> * xyzfile 0 3 ../../../starts/double_ring_6_6_d1.70.xyz
| 10> 
| 11>                          ****END OF INPUT****
================================================================================

                       *****************************
                       * Geometry Optimization Run *
                       *****************************

Geometry optimization settings:
Update method            Update   .... BFGS
Choice of coordinates    CoordSys .... (2022) Redundant Internals
Initial Hessian          InHess   .... Almloef's Model
Max. no of cycles        MaxIter  .... 50

Convergence Tolerances:
Energy Change            TolE     ....  1.0000e-06 Eh
Max. Gradient            TolMAXG  ....  1.0000e-04 Eh/bohr
RMS Gradient             TolRMSG  ....  3.0000e-05 Eh/bohr
Max. Displacement        TolMAXD  ....  1.0000e-03 bohr
RMS Displacement         TolRMSD  ....  6.0000e-04 bohr
Strict Convergence                .... False

------------------------------------------------------------------------------
                        ORCA OPTIMIZATION COORDINATE SETUP
------------------------------------------------------------------------------

The optimization will be done in redundant internal coordinates (2022)
Making redundant internal coordinates   ...  (2022 redundants) done
Evaluating the initial hessian          ...  (Almloef) done
Evaluating the coordinates              ...  done
Calculating the B-matrix                .... done
Calculating the G-matrix                .... done
The number of degrees of freedom        ....  240

    -----------------------------------------------------------------
                    Redundant Internal Coordinates


    -----------------------------------------------------------------
         Definition                    Initial Value    Approx d2E/dq
    -----------------------------------------------------------------
      1. B(B   1,B   0)                  1.7000         0.268404   
      2. B(B   2,B   1)                  1.7000         0.268404   
      3. B(B   3,B   2)                  1.7000         0.268404   
      4. B(B   4,B   3)                  1.7000         0.268404   
      5. B(B   5,B   0)                  1.7000         0.268404   
      6. B(B   5,B   4)                  1.7000         0.268404   
      7. B(B   6,B   1)                  2.3696         0.022934   
      8. B(B   6,B   0)                  2.3696         0.022934   
      9. B(B   7,B   6)                  1.5640         0.442352   
     10. B(B   7,B   2)                  2.3696         0.022934   
     11. B(B   7,B   1)                  2.3696         0.022934   
     12. B(B   8,B   2)                  2.3696         0.022934   
     13. B(B   8,B   3)                  2.3696         0.022934   
     14. B(B   8,B   7)                  1.5640         0.442352   
     15. B(B   9,B   4)                  2.3696         0.022934   
     16. B(B   9,B   3)                  2.3696         0.022934   
     17. B(B   9,B   8)                  1.5640         0.442352   
     18. B(B  10,B   5)                  2.3696         0.022934   
     19. B(B  10,B   9)                  1.5640         0.442352   
     20. B(B  10,B   4)                  2.3696         0.022934   
     21. B(B  11,B  10)                  1.5640         0.442352   
     22. B(B  11,B   0)                  2.3696         0.022934   
     23. B(B  11,B   6)                  1.5640         0.442352   
     24. B(B  11,B   5)                  2.3696         0.022934   
     25. A(B   1,B   0,B   6)           68.9790         0.230249   
     26. A(B   1,B   0,B   5)          120.0000         0.335481   
     27. A(B   5,B   0,B  11)           68.9790         0.230249   
     28. A(B   5,B   0,B   6)          102.2917         0.230249   
     29. A(B   6,B   0,B  11)           38.5391         0.169944   
     30. A(B   1,B   0,B  11)          102.2917         0.230249   
     31. A(B   0,B   1,B   6)           68.9790         0.230249   
     32. A(B   0,B   1,B   2)          120.0000         0.335481   
     33. A(B   0,B   1,B   7)          102.2917         0.230249   
     34. A(B   6,B   1,B   7)           38.5391         0.169944   
     35. A(B   2,B   1,B   7)           68.9790         0.230249   
     36. A(B   2,B   1,B   6)          102.2917         0.230249   
     37. A(B   1,B   2,B   7)           68.9790         0.230249   
     38. A(B   3,B   2,B   7)          102.2917         0.230249   
     39. A(B   3,B   2,B   8)           68.9790         0.230249   
     40. A(B   1,B   2,B   8)          102.2917         0.230249   
     41. A(B   1,B   2,B   3)          120.0000         0.335481   
     42. A(B   7,B   2,B   8)           38.5391         0.169944   
     43. A(B   2,B   3,B   9)          102.2917         0.230249   
     44. A(B   4,B   3,B   8)          102.2917         0.230249   
     45. A(B   2,B   3,B   8)           68.9790         0.230249   
     46. A(B   8,B   3,B   9)           38.5391         0.169944   
     47. A(B   2,B   3,B   4)          120.0000         0.335481   
     48. A(B   4,B   3,B   9)           68.9790         0.230249   
     49. A(B   5,B   4,B  10)           68.9790         0.230249   
     50. A(B   3,B   4,B  10)          102.2917         0.230249   
     51. A(B   5,B   4,B   9)          102.2917         0.230249   
     52. A(B   3,B   4,B   5)          120.0000         0.335481   
     53. A(B   3,B   4,B   9)           68.9790         0.230249   
     54. A(B   9,B   4,B  10)           38.5391         0.169944   
     55. A(B   4,B   5,B  11)          102.2917         0.230249   
     56. A(B   0,B   5,B  11)           68.9790         0.230249   
     57. A(B  10,B   5,B  11)           38.5391         0.169944   
     58. A(B   0,B   5,B   4)          120.0000         0.335481   
     59. A(B   4,B   5,B  10)           68.9790         0.230249   
     60. A(B   0,B   5,B  10)          102.2917         0.230249   
     61. A(B   1,B   6,B   7)           70.7304         0.247160   
     62. A(B   7,B   6,B  11)          120.0000         0.398033   
     63. A(B   0,B   6,B   1)           42.0420         0.169944   
     64. A(B   0,B   6,B  11)           70.7304         0.247160   
     65. A(B   0,B   6,B   7)          106.9352         0.247160   
     66. A(B   1,B   6,B  11)          106.9352         0.247160   
     67. A(B   6,B   7,B   8)          120.0000         0.398033   
     68. A(B   1,B   7,B   2)           42.0420         0.169944   
     69. A(B   1,B   7,B   8)          106.9352         0.247160   
     70. A(B   1,B   7,B   6)           70.7304         0.247160   
     71. A(B   2,B   7,B   8)           70.7304         0.247160   
     72. A(B   2,B   7,B   6)          106.9352         0.247160   
     73. A(B   2,B   8,B   3)           42.0420         0.169944   
     74. A(B   3,B   8,B   9)           70.7304         0.247160   
     75. A(B   3,B   8,B   7)          106.9352         0.247160   
     76. A(B   2,B   8,B   9)          106.9352         0.247160   
     77. A(B   2,B   8,B   7)           70.7304         0.247160   
     78. A(B   7,B   8,B   9)          120.0000         0.398033   
     79. A(B   3,B   9,B   4)           42.0420         0.169944   
     80. A(B   3,B   9,B  10)          106.9352         0.247160   
     81. A(B   3,B   9,B   8)           70.7304         0.247160   
     82. A(B   4,B   9,B  10)           70.7304         0.247160   
     83. A(B   4,B   9,B   8)          106.9352         0.247160   
     84. A(B   8,B   9,B  10)          120.0000         0.398033   
     85. A(B   4,B  10,B   9)           70.7304         0.247160   
     86. A(B   4,B  10,B   5)           42.0420         0.169944   
     87. A(B   5,B  10,B  11)           70.7304         0.247160   
     88. A(B   5,B  10,B   9)          106.9352         0.247160   
     89. A(B   9,B  10,B  11)          120.0000         0.398033   
     90. A(B   4,B  10,B  11)          106.9352         0.247160   
     91. A(B   5,B  11,B  10)           70.7304         0.247160   
     92. A(B   5,B  11,B   6)          106.9352         0.247160   
     93. A(B   6,B  11,B  10)          120.0000         0.398033   
     94. A(B   0,B  11,B   5)           42.0420         0.169944   
     95. A(B   0,B  11,B  10)          106.9352         0.247160   
     96. A(B   0,B  11,B   6)           70.7304         0.247160   
     97. D(B   2,B   1,B   0,B   6)    -92.3775         0.010000   
     98. D(B   2,B   1,B   0,B   5)      0.0000         0.010000   
     99. D(B   6,B   1,B   0,B  11)     19.7225         0.010000   
    100. D(B   2,B   1,B   0,B  11)    -72.6550         0.010000   
    101. D(B   7,B   1,B   0,B   5)     72.6550         0.010000   
    102. D(B   6,B   1,B   0,B   5)     92.3775         0.010000   
    103. D(B   8,B   2,B   1,B   7)    -19.7225         0.010000   
    104. D(B   3,B   2,B   1,B   6)    -72.6550         0.010000   
    105. D(B   3,B   2,B   1,B   0)      0.0000         0.010000   
    106. D(B   8,B   2,B   1,B   0)     72.6550         0.010000   
    107. D(B   8,B   2,B   1,B   6)      0.0000         0.010000   
    108. D(B   3,B   2,B   1,B   7)    -92.3775         0.010000   
    109. D(B   4,B   3,B   2,B   7)    -72.6550         0.010000   
    110. D(B   8,B   3,B   2,B   1)     92.3775         0.010000   
    111. D(B   4,B   3,B   2,B   8)    -92.3775         0.010000   
    112. D(B   4,B   3,B   2,B   1)      0.0000         0.010000   
    113. D(B   9,B   3,B   2,B   1)     72.6550         0.010000   
    114. D(B   8,B   3,B   2,B   7)     19.7225         0.010000   
    115. D(B   5,B   4,B   3,B   9)    -92.3775         0.010000   
    116. D(B   9,B   4,B   3,B   2)     92.3775         0.010000   
    117. D(B   5,B   4,B   3,B   2)      0.0000         0.010000   
    118. D(B   5,B   4,B   3,B   8)    -72.6550         0.010000   
    119. D(B   9,B   4,B   3,B   8)     19.7225         0.010000   
    120. D(B  10,B   4,B   3,B   2)     72.6550         0.010000   
    121. D(B   4,B   5,B   0,B   6)     72.6550         0.010000   
    122. D(B  11,B   5,B   0,B   6)    -19.7225         0.010000   
    123. D(B  10,B   5,B   0,B   1)    -72.6550         0.010000   
    124. D(B   4,B   5,B   0,B  11)     92.3775         0.010000   
    125. D(B   4,B   5,B   0,B   1)      0.0000         0.010000   
    126. D(B   0,B   5,B   4,B   3)      0.0000         0.010000   
    127. D(B  11,B   5,B   0,B   1)    -92.3775         0.010000   
    128. D(B  11,B   5,B   4,B   9)      0.0000         0.010000   
    129. D(B   0,B   5,B   4,B  10)    -92.3775         0.010000   
    130. D(B  11,B   5,B   4,B   3)     72.6550         0.010000   
    131. D(B  11,B   5,B   4,B  10)    -19.7225         0.010000   
    132. D(B   0,B   5,B   4,B   9)    -72.6550         0.010000   
    133. D(B   0,B   6,B   1,B   2)    117.6769         0.010000   
    134. D(B  11,B   6,B   1,B   2)     86.1959         0.010000   
    135. D(B  11,B   6,B   1,B   0)    -31.4810         0.010000   
    136. D(B   7,B   6,B   1,B   2)    -30.3704         0.010000   
    137. D(B   7,B   6,B   1,B   0)   -148.0473         0.010000   
    138. D(B   1,B   6,B   0,B   5)   -117.6769         0.010000   
    139. D(B   7,B   6,B   0,B  11)   -116.5664         0.010000   
    140. D(B   7,B   6,B   0,B   5)    -86.1959         0.010000   
    141. D(B   7,B   6,B   0,B   1)     31.4810         0.010000   
    142. D(B  11,B   6,B   1,B   7)    116.5664         0.010000   
    143. D(B  11,B   6,B   0,B   1)    148.0473         0.010000   
    144. D(B  11,B   6,B   0,B   5)     30.3704         0.010000   
    145. D(B   8,B   7,B   6,B   1)     98.8863         0.010740   
    146. D(B   8,B   7,B   6,B  11)      0.0000         0.010740   
    147. D(B   1,B   7,B   2,B   3)    117.6769         0.010000   
    148. D(B   6,B   7,B   2,B   1)    -31.4810         0.010000   
    149. D(B   6,B   7,B   2,B   3)     86.1959         0.010000   
    150. D(B   8,B   7,B   2,B   1)   -148.0473         0.010000   
    151. D(B   2,B   7,B   1,B   0)   -117.6769         0.010000   
    152. D(B   8,B   7,B   2,B   3)    -30.3704         0.010000   
    153. D(B   8,B   7,B   1,B   6)   -116.5664         0.010000   
    154. D(B   8,B   7,B   1,B   2)     31.4810         0.010000   
    155. D(B   6,B   7,B   2,B   8)    116.5664         0.010000   
    156. D(B   6,B   7,B   1,B   0)     30.3704         0.010000   
    157. D(B   6,B   7,B   1,B   2)    148.0473         0.010000   
    158. D(B   8,B   7,B   6,B   0)     77.1417         0.010740   
    159. D(B   8,B   7,B   1,B   0)    -86.1959         0.010000   
    160. D(B   2,B   7,B   6,B   0)      0.0000         0.010740   
    161. D(B   2,B   7,B   6,B   1)     21.7446         0.010740   
    162. D(B   2,B   7,B   6,B  11)    -77.1417         0.010740   
    163. D(B   3,B   8,B   7,B   6)    -77.1417         0.010740   
    164. D(B   2,B   8,B   7,B   1)    -21.7446         0.010740   
    165. D(B   2,B   8,B   7,B   6)    -98.8863         0.010740   
    166. D(B   9,B   8,B   7,B   1)     77.1417         0.010740   
    167. D(B   9,B   8,B   7,B   2)     98.8863         0.010740   
    168. D(B   2,B   8,B   3,B   4)    117.6769         0.010000   
    169. D(B   9,B   8,B   3,B   4)    -30.3704         0.010000   
    170. D(B   9,B   8,B   3,B   2)   -148.0473         0.010000   
    171. D(B   7,B   8,B   3,B   9)    116.5664         0.010000   
    172. D(B   7,B   8,B   3,B   4)     86.1959         0.010000   
    173. D(B   7,B   8,B   3,B   2)    -31.4810         0.010000   
    174. D(B   9,B   8,B   7,B   6)      0.0000         0.010740   
    175. D(B   3,B   8,B   2,B   1)   -117.6769         0.010000   
    176. D(B   9,B   8,B   2,B   1)    -86.1959         0.010000   
    177. D(B   7,B   8,B   2,B   3)    148.0473         0.010000   
    178. D(B   7,B   8,B   2,B   1)     30.3704         0.010000   
    179. D(B   9,B   8,B   2,B   7)   -116.5664         0.010000   
    180. D(B   9,B   8,B   2,B   3)     31.4810         0.010000   
    181. D(B   4,B   9,B   8,B   3)     21.7446         0.010740   
    182. D(B   4,B   9,B   8,B   2)      0.0000         0.010740   
    183. D(B   4,B   9,B   8,B   7)    -77.1417         0.010740   
    184. D(B  10,B   9,B   8,B   3)     98.8863         0.010740   
    185. D(B  10,B   9,B   8,B   2)     77.1417         0.010740   
    186. D(B  10,B   9,B   8,B   7)      0.0000         0.010740   
    187. D(B   3,B   9,B   4,B   5)    117.6769         0.010000   
    188. D(B  10,B   9,B   4,B   5)    -30.3704         0.010000   
    189. D(B  10,B   9,B   4,B   3)   -148.0473         0.010000   
    190. D(B   8,B   9,B   4,B  10)    116.5664         0.010000   
    191. D(B   8,B   9,B   4,B   5)     86.1959         0.010000   
    192. D(B   8,B   9,B   4,B   3)    -31.4810         0.010000   
    193. D(B   4,B   9,B   3,B   2)   -117.6769         0.010000   
    194. D(B  10,B   9,B   3,B   8)   -116.5664         0.010000   
    195. D(B  10,B   9,B   3,B   4)     31.4810         0.010000   
    196. D(B  10,B   9,B   3,B   2)    -86.1959         0.010000   
    197. D(B   8,B   9,B   3,B   4)    148.0473         0.010000   
    198. D(B   8,B   9,B   3,B   2)     30.3704         0.010000   
    199. D(B   5,B  10,B   9,B   8)    -77.1417         0.010740   
    200. D(B   4,B  10,B   9,B   8)    -98.8863         0.010740   
    201. D(B  11,B  10,B   9,B   3)     77.1417         0.010740   
    202. D(B  11,B  10,B   9,B   4)     98.8863         0.010740   
    203. D(B  11,B  10,B   9,B   8)      0.0000         0.010740   
    204. D(B   4,B  10,B   5,B   0)    117.6769         0.010000   
    205. D(B  11,B  10,B   5,B   4)   -148.0473         0.010000   
    206. D(B  11,B  10,B   5,B   0)    -30.3704         0.010000   
    207. D(B   9,B  10,B   5,B  11)    116.5664         0.010000   
    208. D(B   9,B  10,B   5,B   4)    -31.4810         0.010000   
    209. D(B   9,B  10,B   5,B   0)     86.1959         0.010000   
    210. D(B   5,B  10,B   4,B   3)   -117.6769         0.010000   
    211. D(B  11,B  10,B   4,B   9)   -116.5664         0.010000   
    212. D(B  11,B  10,B   4,B   5)     31.4810         0.010000   
    213. D(B  11,B  10,B   4,B   3)    -86.1959         0.010000   
    214. D(B   4,B  10,B   9,B   3)    -21.7446         0.010740   
    215. D(B   9,B  10,B   4,B   5)    148.0473         0.010000   
    216. D(B   9,B  10,B   4,B   3)     30.3704         0.010000   
    217. D(B   5,B  11,B   0,B   1)    117.6769         0.010000   
    218. D(B  10,B  11,B   0,B   6)    116.5664         0.010000   
    219. D(B  10,B  11,B   0,B   5)    -31.4810         0.010000   
    220. D(B  10,B  11,B   0,B   1)     86.1959         0.010000   
    221. D(B   6,B  11,B   0,B   5)   -148.0473         0.010000   
    222. D(B   6,B  11,B   5,B   0)     31.4810         0.010000   
    223. D(B   6,B  11,B   0,B   1)    -30.3704         0.010000   
    224. D(B   0,B  11,B  10,B   9)    -77.1417         0.010740   
    225. D(B   5,B  11,B  10,B   9)    -98.8863         0.010740   
    226. D(B   6,B  11,B  10,B   5)     98.8863         0.010740   
    227. D(B   6,B  11,B  10,B   4)     77.1417         0.010740   
    228. D(B   5,B  11,B   6,B   0)    -21.7446         0.010740   
    229. D(B   5,B  11,B   6,B   1)      0.0000         0.010740   
    230. D(B   5,B  11,B   6,B   7)     77.1417         0.010740   
    231. D(B  10,B  11,B   6,B   0)    -98.8863         0.010740   
    232. D(B  10,B  11,B   6,B   1)    -77.1417         0.010740   
    233. D(B  10,B  11,B   6,B   7)      0.0000         0.010740   
    234. D(B   6,B  11,B  10,B   9)      0.0000         0.010740   
    235. D(B   0,B  11,B   5,B   4)   -117.6769         0.010000   
    236. D(B  10,B  11,B   5,B   4)     30.3704         0.010000   
    237. D(B  10,B  11,B   5,B   0)    148.0473         0.010000   
    238. D(B   5,B  11,B  10,B   4)    -21.7446         0.010740   
    239. D(B   6,B  11,B   5,B  10)   -116.5664         0.010000   
    240. D(B   6,B  11,B   5,B   4)    -86.1959         0.010000   
    -----------------------------------------------------------------

Number of atoms                         .... 12
Number of degrees of freedom            .... 240


         *************************************************************
         *                GEOMETRY OPTIMIZATION CYCLE   1            *
         *************************************************************
---------------------------------
CARTESIAN COORDINATES (ANGSTROEM)
---------------------------------
  B     1.700000   -0.000000   -1.105000
  B     0.850000    1.472243   -1.105000
  B    -0.850000    1.472243   -1.105000
  B    -1.700000    0.000000   -1.105000
  B    -0.850000   -1.472243   -1.105000
  B     0.850000   -1.472243   -1.105000
  B     1.354464    0.782000    1.105000
  B     0.000000    1.564000    1.105000
  B    -1.354464    0.782000    1.105000
  B    -1.354464   -0.782000    1.105000
  B    -0.000000   -1.564000    1.105000
  B     1.354464   -0.782000    1.105000

----------------------------
CARTESIAN COORDINATES (A.U.)
----------------------------
  NO LB    ZA    FRAG    MASS        X           Y           Z
   0 B   5.0000    0    10.810    3.212534   -0.000000   -2.088147
   1 B   5.0000    0    10.810    1.606267    2.782136   -2.088147
   2 B   5.0000    0    10.810   -1.606267    2.782136   -2.088147
   3 B   5.0000    0    10.810   -3.212534    0.000000   -2.088147
   4 B   5.0000    0    10.810   -1.606267   -2.782136   -2.088147
   5 B   5.0000    0    10.810    1.606267   -2.782136   -2.088147
   6 B   5.0000    0    10.810    2.559566    1.477766    2.088147
   7 B   5.0000    0    10.810    0.000000    2.955532    2.088147
   8 B   5.0000    0    10.810   -2.559566    1.477766    2.088147
   9 B   5.0000    0    10.810   -2.559566   -1.477766    2.088147
  10 B   5.0000    0    10.810   -0.000000   -2.955532    2.088147
  11 B   5.0000    0    10.810    2.559566   -1.477766    2.088147

      -----------------------------------------------------------      
     |                   =====================                   |     
     |                           x T B                           |     
     |                   =====================                   |     
     |                         S. Grimme                         |     
     |          Mulliken Center for Theoretical Chemistry        |     
     |                    University of Bonn                     |     
      -----------------------------------------------------------      

   * xtb version 6.6.1 (unknown) compiled by 'builduser@buildhost' on 2023-08-07

   xtb is free software: you can redistribute it and/or modify it under
   the terms of the GNU Lesser General Public License as published by
   the Free Software Foundation, either version 3 of the License, or
   (at your option) any later version.
   
   xtb is distributed in the hope that it will be useful,
   but WITHOUT ANY WARRANTY; without even the implied warranty of
   MERCHANTABILITY or FITNESS FOR A PARTICULAR PURPOSE.  See the
   GNU Lesser General Public License for more details.
   
   Cite this work as:
   * C. Bannwarth, E. Caldeweyher, S. Ehlert, A. Hansen, P. Pracht,
     J. Seibert, S. Spicher, S. Grimme, WIREs Comput. Mol. Sci., 2020, 11,
     e01493. DOI: 10.1002/wcms.1493
   
   for GFN2-xTB:
   * C. Bannwarth, S. Ehlert and S. Grimme., J. Chem. Theory Comput., 2019,
     15, 1652-1671. DOI: 10.1021/acs.jctc.8b01176
   for GFN1-xTB:
   * S. Grimme, C. Bannwarth, P. Shushkov, J. Chem. Theory Comput., 2017,
     13, 1989-2009. DOI: 10.1021/acs.jctc.7b00118
   for GFN0-xTB:
   * P. Pracht, E. Caldeweyher, S. Ehlert, S. Grimme, ChemRxiv, 2019, preprint.
     DOI: 10.26434/chemrxiv.8326202.v1
   for GFN-FF:
   * S. Spicher and S. Grimme, Angew. Chem. Int. Ed., 2020, 59, 15665-15673.
     DOI: 10.1002/anie.202004239
   
   for ALPB and GBSA implicit solvation:
   * S. Ehlert, M. Stahn, S. Spicher, S. Grimme, J. Chem. Theory Comput.,
     2021, 17, 4250-4261. DOI: 10.1021/acs.jctc.1c00471
   
   for DFT-D4:
   * E. Caldeweyher, C. Bannwarth and S. Grimme, J. Chem. Phys., 2017,
     147, 034112. DOI: 10.1063/1.4993215
   * E. Caldeweyher, S. Ehlert, A. Hansen, H. Neugebauer, S. Spicher,
     C. Bannwarth and S. Grimme, J. Chem. Phys., 2019, 150, 154122.
     DOI: 10.1063/1.5090222
   * E. Caldeweyher, J.-M. Mewes, S. Ehlert and S. Grimme, Phys. Chem. Chem. Phys.
     2020, 22, 8499-8512. DOI: 10.1039/D0CP00502A
   
   for sTDA-xTB:
   * S. Grimme and C. Bannwarth, J. Chem. Phys., 2016, 145, 054103.
     DOI: 10.1063/1.4959605
   
   in the mass-spec context:
   * V. Asgeirsson, C. Bauer and S. Grimme, Chem. Sci., 2017, 8, 4879.
     DOI: 10.1039/c7sc00601b
   * J. Koopman and S. Grimme, ACS Omega 2019, 4, 12, 15120-15133.
     DOI: 10.1021/acsomega.9b02011
   
   for metadynamics refer to:
   * S. Grimme, J. Chem. Theory Comput., 2019, 155, 2847-2862
     DOI: 10.1021/acs.jctc.9b00143
   
   for SPH calculations refer to:
   * S. Spicher and S. Grimme, J. Chem. Theory Comput., 2021, 17, 1701-1714
     DOI: 10.1021/acs.jctc.0c01306
   
   with help from (in alphabetical order)
   P. Atkinson, C. Bannwarth, F. Bohle, G. Brandenburg, E. Caldeweyher
   M. Checinski, S. Dohm, S. Ehlert, S. Ehrlich, I. Gerasimov, C. Hölzer
   A. Katbashev, J. Koopman, C. Lavigne, S. Lehtola, F. März, M. Müller,
   F. Musil, H. Neugebauer, J. Pisarek, C. Plett, P. Pracht, F. Pultar,
   J. Seibert, P. Shushkov, S. Spicher, M. Stahn, M. Steiner, T. Strunk,
   J. Stückrath, T. Rose, and J. Unsleber
   
 * started run on 2026/04/17 at 12:14:29.247     

           -------------------------------------------------
          |                Calculation Setup                |
           -------------------------------------------------

          program call               : /usr/bin/xtb double_ring_6_6_d1.70_m3_XTB.xyz --grad -c 0 -u 2 -P 1 --namespace double_ring_6_6_d1.70_m3 --input double_ring_6_6_d1.70_m3_XTB.input.tmp --acc 0.200000
          calculation namespace      : double_ring_6_6_d1.70_m3
          coordinate file            : double_ring_6_6_d1.70_m3_XTB.xyz
          omp threads                :                     1

   ID    Z sym.   atoms
    1    5 B      1-12

molecular fragmentation (1/2 indicates fragments):
111111222222
# atoms in fragment 1/2:     6     6
 fragment masses (1/2) :       64.87       64.87
CMA distance (Bohr)    :   4.176
constraining FC (au)   :  0.0500

           -------------------------------------------------
          |                 G F N 2 - x T B                 |
           -------------------------------------------------

        Reference                      10.1021/acs.jctc.8b01176
      * Hamiltonian:
        H0-scaling (s, p, d)           1.850000    2.230000    2.230000
        zeta-weighting                 0.500000
      * Dispersion:
        s8                             2.700000
        a1                             0.520000
        a2                             5.000000
        s9                             5.000000
      * Repulsion:
        kExp                           1.500000    1.000000
        rExp                           1.000000
      * Coulomb:
        alpha                          2.000000
        third order                    shell-resolved
        anisotropic                    true
        a3                             3.000000
        a5                             4.000000
        cn-shift                       1.200000
        cn-exp                         4.000000
        max-rad                        5.000000


          ...................................................
          :                      SETUP                      :
          :.................................................:
          :  # basis functions                  48          :
          :  # atomic orbitals                  48          :
          :  # shells                           24          :
          :  # electrons                        36          :
          :  max. iterations                   250          :
          :  Hamiltonian                  GFN2-xTB          :
          :  restarted?                      false          :
          :  GBSA solvation                  false          :
          :  PC potential                    false          :
          :  electronic temp.          300.0000000     K    :
          :  accuracy                    0.2000000          :
          :  -> integral cutoff          0.3198970E+02      :
          :  -> integral neglect         0.2000000E-08      :
          :  -> SCF convergence          0.2000000E-06 Eh   :
          :  -> wf. convergence          0.2000000E-04 e    :
          :  Broyden damping             0.4000000          :
          ...................................................

 iter      E             dE          RMSdq      gap      omega  full diag
   1    -14.2313834 -0.142314E+02  0.234E+01    0.95       0.0  T
   2    -14.2286376  0.274581E-02  0.141E+01    0.95       1.0  T
   3    -13.7308361  0.497802E+00  0.404E+00    1.38       1.0  T
   4    -14.2330053 -0.502169E+00  0.132E+00    0.93       1.0  T
   5    -14.2323647  0.640561E-03  0.195E+00    0.93       1.0  T
   6    -14.2429012 -0.105365E-01  0.111E-01    0.94       1.0  T
   7    -14.2429922 -0.909558E-04  0.495E-02    0.94       1.0  T
   8    -14.2430381 -0.458976E-04  0.354E-03    0.94       8.2  T
   9    -14.2430382 -0.912738E-07  0.849E-04    0.94      34.0  T
  10    -14.2430382 -0.306699E-09  0.117E-04    0.94     246.8  T
  11    -14.2430382 -0.575255E-10  0.114E-04    0.94     253.0  T

   *** convergence criteria satisfied after 11 iterations ***

         #    Occupation            Energy/Eh            Energy/eV
      -------------------------------------------------------------
         1        2.0000           -0.4042075             -10.9990
       ...           ...                  ...                  ...
        13        2.0000           -0.2896842              -7.8827
        14        2.0000           -0.2732592              -7.4358
        15        2.0000           -0.2597462              -7.0681
        16        2.0000           -0.2597462              -7.0681
        17        2.0000           -0.2409270              -6.5560
        18        1.0000           -0.2164904              -5.8910
        19        1.0000           -0.2164904              -5.8910 (HOMO)
        20                         -0.1821182              -4.9557 (LUMO)
        21                         -0.1821182              -4.9557
        22                         -0.1544147              -4.2018
        23                         -0.1448913              -3.9427
        24                         -0.1330799              -3.6213
       ...                                ...                  ...
        48                          1.0688993              29.0862
      -------------------------------------------------------------
                  HL-Gap            0.0343721 Eh            0.9353 eV
             Fermi-level           -0.2141711 Eh           -5.8279 eV

 transition dipole moment (au) for excitation:          18          19
     X       Y       Z   
   0.0000   0.0000  -0.0000  total (au/Debye):    0.000   0.000
 dE (eV)             :    0.000
 oscillator strength :  0.28363E-23

 SCC (total)                   0 d,  0 h,  0 min,  0.029 sec
 SCC setup                      ...        0 min,  0.000 sec (  0.490%)
 Dispersion                     ...        0 min,  0.000 sec (  0.353%)
 classical contributions        ...        0 min,  0.000 sec (  0.122%)
 integral evaluation            ...        0 min,  0.003 sec ( 11.426%)
 iterations                     ...        0 min,  0.013 sec ( 44.253%)
 molecular gradient             ...        0 min,  0.007 sec ( 25.263%)
 printout                       ...        0 min,  0.005 sec ( 18.015%)

         :::::::::::::::::::::::::::::::::::::::::::::::::::::
         ::                     SUMMARY                     ::
         :::::::::::::::::::::::::::::::::::::::::::::::::::::
         :: total energy             -14.109627111408 Eh    ::
         :: gradient norm              0.161639500736 Eh/a0 ::
         :: HOMO-LUMO gap              0.935313538637 eV    ::
         ::.................................................::
         :: SCC energy               -14.243038179269 Eh    ::
         :: -> isotropic ES            0.075507331228 Eh    ::
         :: -> anisotropic ES          0.008829945094 Eh    ::
         :: -> anisotropic XC         -0.036698851657 Eh    ::
         :: -> dispersion             -0.020812128911 Eh    ::
         :: repulsion energy           0.133394237109 Eh    ::
         :: add. restraining           0.000000000000 Eh    ::
         :: total charge              -0.000000000006 e     ::
         :::::::::::::::::::::::::::::::::::::::::::::::::::::


Property printout bound to 'properties.out'

           -------------------------------------------------
          | TOTAL ENERGY              -14.109627111408 Eh   |
          | GRADIENT NORM               0.161639500736 Eh/α |
          | HOMO-LUMO GAP               0.935313538637 eV   |
           -------------------------------------------------

------------------------------------------------------------------------
 * finished run on 2026/04/17 at 12:14:29.290     
------------------------------------------------------------------------
 total:
 * wall-time:     0 d,  0 h,  0 min,  0.043 sec
 *  cpu-time:     0 d,  0 h,  0 min,  0.042 sec
 * ratio c/w:     0.996 speedup
 SCF:
 * wall-time:     0 d,  0 h,  0 min,  0.029 sec
 *  cpu-time:     0 d,  0 h,  0 min,  0.029 sec
 * ratio c/w:     0.997 speedup


-------------------------   --------------------
FINAL SINGLE POINT ENERGY       -14.109627111410
-------------------------   --------------------


-------------
DIPOLE MOMENT
-------------
                                X             Y             Z
Total Dipole Moment    :      0.00000       0.00000       0.12900
                        -----------------------------------------
Magnitude (a.u.)       :      0.12900
Magnitude (Debye)      :      0.32789


------------------
CARTESIAN GRADIENT
------------------

   1   B   :    0.059193945    0.000000000   -0.019153792
   2   B   :    0.029596976    0.051263444   -0.019153788
   3   B   :   -0.029596976    0.051263444   -0.019153788
   4   B   :   -0.059193945    0.000000000   -0.019153792
   5   B   :   -0.029596976   -0.051263444   -0.019153787
   6   B   :    0.029596976   -0.051263444   -0.019153787
   7   B   :    0.009363359    0.005405982    0.019153790
   8   B   :   -0.000000000    0.010811913    0.019153786
   9   B   :   -0.009363359    0.005405982    0.019153790
  10   B   :   -0.009363359   -0.005405982    0.019153790
  11   B   :   -0.000000000   -0.010811913    0.019153786
  12   B   :    0.009363359   -0.005405982    0.019153790

Difference to translation invariance:
           :   -0.0000000000   -0.0000000000    0.0000000000

Difference to rotation invariance:
           :   -0.0000000001    0.0000000001    0.0000000000

Norm of the Cartesian gradient     ...    0.1616395007
RMS gradient                       ...    0.0269399168
MAX gradient                       ...    0.0591939446
------------------------------------------------------------------------------
                         ORCA GEOMETRY RELAXATION STEP
------------------------------------------------------------------------------

Reading the OPT-File                    .... done
Getting information on internals        .... done
Copying old internal coords+grads       .... done
Making the new internal coordinates     .... (2022 redundants) done
Validating the new internal coordinates .... (2022 redundants) done
Calculating the B-matrix                .... done
Calculating the G,G- and P matrices     .... done
Transforming gradient to internals      .... done
Projecting the internal gradient        .... done
Number of atoms                         ....  12
Number of internal coordinates          .... 240
Current Energy                          ....   -14.109627111 Eh
Current gradient norm                   ....     0.161639501 Eh/bohr
Maximum allowed component of the step   ....  0.300
Current trust radius                    ....  0.300
Evaluating the initial hessian          ....  (Almloef) done
Projecting the Hessian                  .... done
Forming the augmented Hessian           .... done
Diagonalizing the augmented Hessian     .... done
Last element of RFO vector              ....  0.865276516
Lowest eigenvalues of augmented Hessian:
 -0.066265475  0.032621822  0.035295284  0.036065368  0.038347049
Length of the computed step             ....  0.579346446
Warning: the length of the step is outside the trust region - taking restricted step instead
The input lambda is                     ....     0.029147
   iter:   5  x=    0.022532  g=23898.927072 f(x)=    60.848825
   iter:  10  x=   -0.032963  g=   49.489887 f(x)=     1.123548
   iter:  15  x=   -0.234366  g=    0.499329 f(x)=     0.004891
The output lambda is                    ....    -0.234797 (19 iterations)
The final length of the internal step   ....  0.300000000
Converting the step to Cartesian space:
 Initial RMS(Int)=    0.0193649167
Transforming coordinates:
 Iter   0:  RMS(Cart)=    0.0400334293 RMS(Int)=    0.0193363203
done
Storing new coordinates                 .... done

                                .--------------------.
          ----------------------|Geometry convergence|-------------------------
          Item                value                   Tolerance       Converged
          ---------------------------------------------------------------------
          RMS gradient        0.0084363009            0.0000300000      NO
          MAX gradient        0.0434604213            0.0001000000      NO
          RMS step            0.0193649167            0.0006000000      NO
          MAX step            0.0926332767            0.0010000000      NO
          -------------------------------------------------------------------------
          ........................................................
          Max(Bonds)      0.0490      Max(Angles)    0.85
          Max(Dihed)        0.91      Max(Improp)    0.00
          ---------------------------------------------------------------------

The optimization has not yet converged - more geometry cycles are needed


    ---------------------------------------------------------------------------
                         Redundant Internal Coordinates
                            (Angstroem and degrees)

        Definition                    Value    dE/dq     Step     New-Value
    ----------------------------------------------------------------------------
     1. B(B   1,B   0)                1.7000  0.043460 -0.0490    1.6510   
     2. B(B   2,B   1)                1.7000  0.042495 -0.0484    1.6516   
     3. B(B   3,B   2)                1.7000  0.043321 -0.0488    1.6512   
     4. B(B   4,B   3)                1.7000  0.042917 -0.0486    1.6514   
     5. B(B   5,B   0)                1.7000  0.042794 -0.0485    1.6515   
     6. B(B   5,B   4)                1.7000  0.042829 -0.0485    1.6515   
     7. B(B   6,B   1)                2.3696  0.012336 -0.0233    2.3463   
     8. B(B   6,B   0)                2.3696  0.011422 -0.0224    2.3472   
     9. B(B   7,B   6)                1.5640  0.017319 -0.0132    1.5508   
    10. B(B   7,B   2)                2.3696  0.012724 -0.0239    2.3457   
    11. B(B   7,B   1)                2.3696  0.013389 -0.0246    2.3450   
    12. B(B   8,B   2)                2.3696  0.012464 -0.0234    2.3462   
    13. B(B   8,B   3)                2.3696  0.012271 -0.0232    2.3464   
    14. B(B   8,B   7)                1.5640  0.017157 -0.0133    1.5507   
    15. B(B   9,B   4)                2.3696  0.013080 -0.0243    2.3453   
    16. B(B   9,B   3)                2.3696  0.012509 -0.0235    2.3461   
    17. B(B   9,B   8)                1.5640  0.017211 -0.0132    1.5508   
    18. B(B  10,B   5)                2.3696  0.012919 -0.0239    2.3457   
    19. B(B  10,B   9)                1.5640  0.016899 -0.0131    1.5509   
    20. B(B  10,B   4)                2.3696  0.013120 -0.0243    2.3453   
    21. B(B  11,B  10)                1.5640  0.017347 -0.0133    1.5507   
    22. B(B  11,B   0)                2.3696  0.012880 -0.0239    2.3457   
    23. B(B  11,B   6)                1.5640  0.017359 -0.0133    1.5507   
    24. B(B  11,B   5)                2.3696  0.012548 -0.0237    2.3460   
    25. A(B   1,B   0,B   6)           68.98 -0.003914    0.39     69.37   
    26. A(B   1,B   0,B   5)          120.00  0.000089   -0.00    120.00   
    27. A(B   5,B   0,B  11)           68.98 -0.004124    0.42     69.39   
    28. A(B   5,B   0,B   6)          102.29 -0.002092    0.44    102.73   
    29. A(B   6,B   0,B  11)           38.54  0.002209    0.05     38.59   
    30. A(B   1,B   0,B  11)          102.29 -0.001860    0.41    102.71   
    31. A(B   0,B   1,B   6)           68.98 -0.004445    0.45     69.43   
    32. A(B   0,B   1,B   2)          120.00 -0.000200    0.01    120.01   
    33. A(B   0,B   1,B   7)          102.29 -0.002541    0.49    102.78   
    34. A(B   6,B   1,B   7)           38.54  0.002089    0.07     38.61   
    35. A(B   2,B   1,B   7)           68.98 -0.004156    0.42     69.40   
    36. A(B   2,B   1,B   6)          102.29 -0.002248    0.46    102.75   
    37. A(B   1,B   2,B   7)           68.98 -0.003770    0.38     69.36   
    38. A(B   3,B   2,B   7)          102.29 -0.002281    0.46    102.75   
    39. A(B   3,B   2,B   8)           68.98 -0.004177    0.42     69.40   
    40. A(B   1,B   2,B   8)          102.29 -0.001765    0.41    102.70   
    41. A(B   1,B   2,B   3)          120.00  0.000130   -0.01    119.99   
    42. A(B   7,B   2,B   8)           38.54  0.002092    0.06     38.60   
    43. A(B   2,B   3,B   9)          102.29 -0.002124    0.44    102.73   
    44. A(B   4,B   3,B   8)          102.29 -0.001887    0.42    102.71   
    45. A(B   2,B   3,B   8)           68.98 -0.004065    0.41     69.39   
    46. A(B   8,B   3,B   9)           38.54  0.002137    0.06     38.60   
    47. A(B   2,B   3,B   4)          120.00 -0.000021    0.00    120.00   
    48. A(B   4,B   3,B   9)           68.98 -0.003870    0.39     69.36   
    49. A(B   5,B   4,B  10)           68.98 -0.004064    0.42     69.40   
    50. A(B   3,B   4,B  10)          102.29 -0.002351    0.47    102.76   
    51. A(B   5,B   4,B   9)          102.29 -0.002295    0.46    102.75   
    52. A(B   3,B   4,B   5)          120.00 -0.000049   -0.00    120.00   
    53. A(B   3,B   4,B   9)           68.98 -0.004201    0.43     69.41   
    54. A(B   9,B   4,B  10)           38.54  0.001952    0.08     38.61   
    55. A(B   4,B   5,B  11)          102.29 -0.001935    0.42    102.71   
    56. A(B   0,B   5,B  11)           68.98 -0.003932    0.40     69.38   
    57. A(B  10,B   5,B  11)           38.54  0.002116    0.06     38.60   
    58. A(B   0,B   5,B   4)          120.00  0.000051   -0.00    120.00   
    59. A(B   4,B   5,B  10)           68.98 -0.003947    0.39     69.37   
    60. A(B   0,B   5,B  10)          102.29 -0.002034    0.44    102.73   
    61. A(B   1,B   6,B   7)           70.73 -0.000708   -0.08     70.65   
    62. A(B   7,B   6,B  11)          120.00 -0.000158    0.02    120.02   
    63. A(B   0,B   6,B   1)           42.04  0.008359   -0.85     41.20   
    64. A(B   0,B   6,B  11)           70.73 -0.000639   -0.08     70.65   
    65. A(B   0,B   6,B   7)          106.94  0.006294   -0.78    106.15   
    66. A(B   1,B   6,B  11)          106.94  0.006444   -0.79    106.15   
    67. A(B   6,B   7,B   8)          120.00  0.000244   -0.03    119.97   
    68. A(B   1,B   7,B   2)           42.04  0.007926   -0.80     41.24   
    69. A(B   1,B   7,B   8)          106.94  0.005686   -0.70    106.23   
    70. A(B   1,B   7,B   6)           70.73 -0.001381    0.01     70.74   
    71. A(B   2,B   7,B   8)           70.73 -0.001129   -0.01     70.72   
    72. A(B   2,B   7,B   6)          106.94  0.005324   -0.67    106.26   
    73. A(B   2,B   8,B   3)           42.04  0.008242   -0.83     41.21   
    74. A(B   3,B   8,B   9)           70.73 -0.000992   -0.04     70.69   
    75. A(B   3,B   8,B   7)          106.94  0.005962   -0.74    106.19   
    76. A(B   2,B   8,B   9)          106.94  0.005949   -0.74    106.19   
    77. A(B   2,B   8,B   7)           70.73 -0.000963   -0.05     70.68   
    78. A(B   7,B   8,B   9)          120.00 -0.000235    0.02    120.02   
    79. A(B   3,B   9,B   4)           42.04  0.008071   -0.82     41.23   
    80. A(B   3,B   9,B  10)          106.94  0.005899   -0.73    106.20   
    81. A(B   3,B   9,B   8)           70.73 -0.001145   -0.02     70.71   
    82. A(B   4,B   9,B  10)           70.73 -0.000963   -0.04     70.69   
    83. A(B   4,B   9,B   8)          106.94  0.005723   -0.71    106.23   
    84. A(B   8,B   9,B  10)          120.00  0.000162   -0.01    119.99   
    85. A(B   4,B  10,B   9)           70.73 -0.000989   -0.04     70.69   
    86. A(B   4,B  10,B   5)           42.04  0.008012   -0.81     41.23   
    87. A(B   5,B  10,B  11)           70.73 -0.001176   -0.02     70.71   
    88. A(B   5,B  10,B   9)          106.94  0.005743   -0.72    106.22   
    89. A(B   9,B  10,B  11)          120.00  0.000080   -0.01    119.99   
    90. A(B   4,B  10,B  11)          106.94  0.005690   -0.71    106.23   
    91. A(B   5,B  11,B  10)           70.73 -0.000939   -0.04     70.69   
    92. A(B   5,B  11,B   6)          106.94  0.005283   -0.66    106.27   
    93. A(B   6,B  11,B  10)          120.00 -0.000092    0.00    120.00   
    94. A(B   0,B  11,B   5)           42.04  0.008056   -0.82     41.23   
    95. A(B   0,B  11,B  10)          106.94  0.005821   -0.72    106.21   
    96. A(B   0,B  11,B   6)           70.73 -0.001570    0.03     70.76   
    97. D(B   2,B   1,B   0,B   6)    -92.38  0.005145   -0.81    -93.19   
    98. D(B   2,B   1,B   0,B   5)      0.00  0.000382   -0.06     -0.06   
    99. D(B   6,B   1,B   0,B  11)     19.72  0.000998    0.05     19.77   
   100. D(B   2,B   1,B   0,B  11)    -72.65  0.006143   -0.76    -73.42   
   101. D(B   7,B   1,B   0,B   5)     72.65 -0.005794    0.70     73.35   
   102. D(B   6,B   1,B   0,B   5)     92.38 -0.004762    0.75     93.13   
   103. D(B   8,B   2,B   1,B   7)    -19.72 -0.000844   -0.06    -19.79   
   104. D(B   3,B   2,B   1,B   6)    -72.65  0.005941   -0.71    -73.37   
   105. D(B   3,B   2,B   1,B   0)      0.00 -0.000412    0.06      0.06   
   106. D(B   8,B   2,B   1,B   0)     72.65 -0.006181    0.76     73.42   
   107. D(B   8,B   2,B   1,B   6)      0.00  0.000172   -0.01     -0.01   
   108. D(B   3,B   2,B   1,B   7)    -92.38  0.004925   -0.77    -93.15   
   109. D(B   4,B   3,B   2,B   7)    -72.65  0.005605   -0.69    -73.34   
   110. D(B   8,B   3,B   2,B   1)     92.38 -0.004529    0.73     93.11   
   111. D(B   4,B   3,B   2,B   8)    -92.38  0.004559   -0.73    -93.11   
   112. D(B   4,B   3,B   2,B   1)      0.00  0.000030   -0.00     -0.00   
   113. D(B   9,B   3,B   2,B   1)     72.65 -0.005584    0.68     73.33   
   114. D(B   8,B   3,B   2,B   7)     19.72  0.001046    0.05     19.77   
   115. D(B   5,B   4,B   3,B   9)    -92.38  0.005119   -0.80    -93.18   
   116. D(B   9,B   4,B   3,B   2)     92.38 -0.004737    0.75     93.12   
   117. D(B   5,B   4,B   3,B   2)      0.00  0.000383   -0.06     -0.06   
   118. D(B   5,B   4,B   3,B   8)    -72.65  0.006094   -0.75    -73.41   
   119. D(B   9,B   4,B   3,B   8)     19.72  0.000975    0.05     19.77   
   120. D(B  10,B   4,B   3,B   2)     72.65 -0.005579    0.68     73.33   
   121. D(B   4,B   5,B   0,B   6)     72.65 -0.005612    0.69     73.34   
   122. D(B  11,B   5,B   0,B   6)    -19.72 -0.001043   -0.05    -19.77   
   123. D(B  10,B   5,B   0,B   1)    -72.65  0.005682   -0.69    -73.34   
   124. D(B   4,B   5,B   0,B  11)     92.38 -0.004569    0.73     93.11   
   125. D(B   4,B   5,B   0,B   1)      0.00  0.000030   -0.00     -0.00   
   126. D(B   0,B   5,B   4,B   3)      0.00 -0.000413    0.06      0.06   
   127. D(B  11,B   5,B   0,B   1)    -92.38  0.004599   -0.74    -93.11   
   128. D(B  11,B   5,B   4,B   9)      0.00  0.000097    0.00      0.00   
   129. D(B   0,B   5,B   4,B  10)    -92.38  0.004698   -0.75    -93.13   
   130. D(B  11,B   5,B   4,B   3)     72.65 -0.005993    0.75     73.40   
   131. D(B  11,B   5,B   4,B  10)    -19.72 -0.000883   -0.06    -19.78   
   132. D(B   0,B   5,B   4,B   9)    -72.65  0.005677   -0.69    -73.34   
   133. D(B   0,B   6,B   1,B   2)    117.68  0.000307   -0.12    117.56   
   134. D(B  11,B   6,B   1,B   2)     86.20 -0.001012    0.06     86.25   
   135. D(B  11,B   6,B   1,B   0)    -31.48 -0.001319    0.17    -31.31   
   136. D(B   7,B   6,B   1,B   2)    -30.37  0.000812   -0.14    -30.51   
   137. D(B   7,B   6,B   1,B   0)   -148.05  0.000505   -0.02   -148.07   
   138. D(B   1,B   6,B   0,B   5)   -117.68 -0.000590    0.13   -117.55   
   139. D(B   7,B   6,B   0,B  11)   -116.57  0.001777   -0.19   -116.76   
   140. D(B   7,B   6,B   0,B   5)    -86.20  0.000928   -0.06    -86.26   
   141. D(B   7,B   6,B   0,B   1)     31.48  0.001518   -0.18     31.30   
   142. D(B  11,B   6,B   1,B   7)    116.57 -0.001824    0.19    116.76   
   143. D(B  11,B   6,B   0,B   1)    148.05 -0.000259    0.01    148.06   
   144. D(B  11,B   6,B   0,B   5)     30.37 -0.000849    0.13     30.50   
   145. D(B   8,B   7,B   6,B   1)     98.89  0.005939   -0.82     98.07   
   146. D(B   8,B   7,B   6,B  11)      0.00 -0.001360    0.16      0.16   
   147. D(B   1,B   7,B   2,B   3)    117.68  0.000701   -0.14    117.54   
   148. D(B   6,B   7,B   2,B   1)    -31.48 -0.001127    0.14    -31.34   
   149. D(B   6,B   7,B   2,B   3)     86.20 -0.000426    0.00     86.20   
   150. D(B   8,B   7,B   2,B   1)   -148.05  0.000070    0.01   -148.04   
   151. D(B   2,B   7,B   1,B   0)   -117.68 -0.000413    0.13   -117.55   
   152. D(B   8,B   7,B   2,B   3)    -30.37  0.000770   -0.13    -30.50   
   153. D(B   8,B   7,B   1,B   6)   -116.57  0.001324   -0.14   -116.71   
   154. D(B   8,B   7,B   1,B   2)     31.48  0.000887   -0.12     31.36   
   155. D(B   6,B   7,B   2,B   8)    116.57 -0.001196    0.13    116.70   
   156. D(B   6,B   7,B   1,B   0)     30.37 -0.000851    0.14     30.51   
   157. D(B   6,B   7,B   1,B   2)    148.05 -0.000438    0.02    148.06   
   158. D(B   8,B   7,B   6,B   0)     77.14  0.001154   -0.34     76.81   
   159. D(B   8,B   7,B   1,B   0)    -86.20  0.000473    0.00    -86.19   
   160. D(B   2,B   7,B   6,B   0)      0.00 -0.000353    0.04      0.04   
   161. D(B   2,B   7,B   6,B   1)     21.74  0.004432   -0.45     21.30   
   162. D(B   2,B   7,B   6,B  11)    -77.14 -0.002867    0.53    -76.61   
   163. D(B   3,B   8,B   7,B   6)    -77.14 -0.000959    0.32    -76.82   
   164. D(B   2,B   8,B   7,B   1)    -21.74 -0.004241    0.43    -21.31   
   165. D(B   2,B   8,B   7,B   6)    -98.89 -0.005643    0.80    -98.09   
   166. D(B   9,B   8,B   7,B   1)     77.14  0.002357   -0.47     76.67   
   167. D(B   9,B   8,B   7,B   2)     98.89  0.006598   -0.91     97.98   
   168. D(B   2,B   8,B   3,B   4)    117.68  0.000399   -0.11    117.57   
   169. D(B   9,B   8,B   3,B   4)    -30.37  0.000850   -0.13    -30.50   
   170. D(B   9,B   8,B   3,B   2)   -148.05  0.000451   -0.01   -148.06   
   171. D(B   7,B   8,B   3,B   9)    116.57 -0.001839    0.19    116.76   
   172. D(B   7,B   8,B   3,B   4)     86.20 -0.000988    0.07     86.26   
   173. D(B   7,B   8,B   3,B   2)    -31.48 -0.001388    0.18    -31.30   
   174. D(B   9,B   8,B   7,B   6)      0.00  0.000955   -0.11     -0.11   
   175. D(B   3,B   8,B   2,B   1)   -117.68 -0.000517    0.12   -117.56   
   176. D(B   9,B   8,B   2,B   1)    -86.20  0.000822   -0.04    -86.24   
   177. D(B   7,B   8,B   2,B   3)    148.05 -0.000491    0.03    148.08   
   178. D(B   7,B   8,B   2,B   1)     30.37 -0.001009    0.15     30.52   
   179. D(B   9,B   8,B   2,B   7)   -116.57  0.001831   -0.19   -116.76   
   180. D(B   9,B   8,B   2,B   3)     31.48  0.001339   -0.16     31.32   
   181. D(B   4,B   9,B   8,B   3)     21.74  0.004443   -0.46     21.29   
   182. D(B   4,B   9,B   8,B   2)      0.00 -0.000213    0.01      0.01   
   183. D(B   4,B   9,B   8,B   7)    -77.14 -0.002154    0.45    -76.69   
   184. D(B  10,B   9,B   8,B   3)     98.89  0.006338   -0.87     98.01   
   185. D(B  10,B   9,B   8,B   2)     77.14  0.001682   -0.41     76.74   
   186. D(B  10,B   9,B   8,B   7)      0.00 -0.000260    0.03      0.03   
   187. D(B   3,B   9,B   4,B   5)    117.68  0.000495   -0.13    117.54   
   188. D(B  10,B   9,B   4,B   5)    -30.37  0.000751   -0.14    -30.51   
   189. D(B  10,B   9,B   4,B   3)   -148.05  0.000256   -0.00   -148.05   
   190. D(B   8,B   9,B   4,B  10)    116.57 -0.001352    0.15    116.72   
   191. D(B   8,B   9,B   4,B   5)     86.20 -0.000601    0.02     86.21   
   192. D(B   8,B   9,B   4,B   3)    -31.48 -0.001096    0.15    -31.33   
   193. D(B   4,B   9,B   3,B   2)   -117.68 -0.000484    0.12   -117.56   
   194. D(B  10,B   9,B   3,B   8)   -116.57  0.001424   -0.16   -116.73   
   195. D(B  10,B   9,B   3,B   4)     31.48  0.001145   -0.15     31.33   
   196. D(B  10,B   9,B   3,B   2)    -86.20  0.000661   -0.03    -86.23   
   197. D(B   8,B   9,B   3,B   4)    148.05 -0.000279    0.02    148.06   
   198. D(B   8,B   9,B   3,B   2)     30.37 -0.000763    0.13     30.51   
   199. D(B   5,B  10,B   9,B   8)    -77.14 -0.001672    0.40    -76.74   
   200. D(B   4,B  10,B   9,B   8)    -98.89 -0.006225    0.86    -98.03   
   201. D(B  11,B  10,B   9,B   3)     77.14  0.001744   -0.40     76.74   
   202. D(B  11,B  10,B   9,B   4)     98.89  0.006195   -0.86     98.03   
   203. D(B  11,B  10,B   9,B   8)      0.00 -0.000030    0.00      0.00   
   204. D(B   4,B  10,B   5,B   0)    117.68  0.000529   -0.12    117.55   
   205. D(B  11,B  10,B   5,B   4)   -148.05  0.000142   -0.00   -148.05   
   206. D(B  11,B  10,B   5,B   0)    -30.37  0.000672   -0.13    -30.50   
   207. D(B   9,B  10,B   5,B  11)    116.57 -0.001480    0.16    116.73   
   208. D(B   9,B  10,B   5,B   4)    -31.48 -0.001337    0.16    -31.32   
   209. D(B   9,B  10,B   5,B   0)     86.20 -0.000808    0.03     86.23   
   210. D(B   5,B  10,B   4,B   3)   -117.68 -0.000519    0.14   -117.54   
   211. D(B  11,B  10,B   4,B   9)   -116.57  0.001436   -0.15   -116.72   
   212. D(B  11,B  10,B   4,B   5)     31.48  0.000949   -0.14     31.34   
   213. D(B  11,B  10,B   4,B   3)    -86.20  0.000430   -0.00    -86.20   
   214. D(B   4,B  10,B   9,B   3)    -21.74 -0.004450    0.45    -21.29   
   215. D(B   9,B  10,B   4,B   5)    148.05 -0.000487    0.02    148.06   
   216. D(B   9,B  10,B   4,B   3)     30.37 -0.001006    0.15     30.52   
   217. D(B   5,B  11,B   0,B   1)    117.68  0.000506   -0.12    117.56   
   218. D(B  10,B  11,B   0,B   6)    116.57 -0.001748    0.18    116.75   
   219. D(B  10,B  11,B   0,B   5)    -31.48 -0.001379    0.17    -31.32   
   220. D(B  10,B  11,B   0,B   1)     86.20 -0.000873    0.05     86.24   
   221. D(B   6,B  11,B   0,B   5)   -148.05  0.000369   -0.02   -148.06   
   222. D(B   6,B  11,B   5,B   0)     31.48  0.001011   -0.13     31.35   
   223. D(B   6,B  11,B   0,B   1)    -30.37  0.000875   -0.13    -30.50   
   224. D(B   0,B  11,B  10,B   9)    -77.14 -0.001566    0.39    -76.75   
   225. D(B   5,B  11,B  10,B   9)    -98.89 -0.006159    0.86    -98.03   
   226. D(B   6,B  11,B  10,B   5)     98.89  0.005783   -0.81     98.08   
   227. D(B   6,B  11,B  10,B   4)     77.14  0.001458   -0.36     76.78   
   228. D(B   5,B  11,B   6,B   0)    -21.74 -0.004441    0.45    -21.29   
   229. D(B   5,B  11,B   6,B   1)      0.00  0.000205   -0.02     -0.02   
   230. D(B   5,B  11,B   6,B   7)     77.14  0.002717   -0.52     76.62   
   231. D(B  10,B  11,B   6,B   0)    -98.89 -0.006087    0.84    -98.04   
   232. D(B  10,B  11,B   6,B   1)    -77.14 -0.001442    0.37    -76.77   
   233. D(B  10,B  11,B   6,B   7)      0.00  0.001070   -0.13     -0.13   
   234. D(B   6,B  11,B  10,B   9)      0.00 -0.000375    0.05      0.05   
   235. D(B   0,B  11,B   5,B   4)   -117.68 -0.000499    0.12   -117.56   
   236. D(B  10,B  11,B   5,B   4)     30.37 -0.001002    0.14     30.51   
   237. D(B  10,B  11,B   5,B   0)    148.05 -0.000504    0.02    148.07   
   238. D(B   5,B  11,B  10,B   4)    -21.74 -0.004326    0.44    -21.30   
   239. D(B   6,B  11,B   5,B  10)   -116.57  0.001515   -0.16   -116.72   
   240. D(B   6,B  11,B   5,B   4)    -86.20  0.000513   -0.02    -86.21   
    ----------------------------------------------------------------------------

Geometry step timings:
Preparation and reading OPT file:      0.000 s ( 0.154 %)
Internal coordinates            :      0.000 s ( 0.255 %)
B/P matrices and projection     :      0.004 s (17.687 %)
Hessian update/contruction      :      0.004 s (17.777 %)
Making the step                 :      0.013 s (54.112 %)
Converting the step to Cartesian:      0.000 s ( 1.573 %)
Storing new data                :      0.000 s ( 0.434 %)
Checking convergence            :      0.000 s ( 0.361 %)
Final printing                  :      0.002 s ( 7.640 %)
Total time                      :      0.025 s

Time for energy+gradient        :      0.053 s
Time for complete geometry iter :      0.080 s

         *************************************************************
         *                GEOMETRY OPTIMIZATION CYCLE   2            *
         *************************************************************
---------------------------------
CARTESIAN COORDINATES (ANGSTROEM)
---------------------------------
  B     1.651398   -0.000022   -1.096454
  B     0.825815    1.429808   -1.095694
  B    -0.825834    1.430027   -1.096448
  B    -1.651508    0.000037   -1.096476
  B    -0.825942   -1.430246   -1.095790
  B     0.825641   -1.430301   -1.096515
  B     1.342826    0.775458    1.097357
  B    -0.000009    1.551085    1.095745
  B    -1.342745    0.775384    1.096456
  B    -1.342871   -0.775336    1.096120
  B     0.000254   -1.550721    1.095825
  B     1.342976   -0.775174    1.095874

----------------------------
CARTESIAN COORDINATES (A.U.)
----------------------------
  NO LB    ZA    FRAG    MASS        X           Y           Z
   0 B   5.0000    0    10.810    3.120689   -0.000042   -2.071998
   1 B   5.0000    0    10.810    1.560565    2.701946   -2.070562
   2 B   5.0000    0    10.810   -1.560600    2.702360   -2.071986
   3 B   5.0000    0    10.810   -3.120898    0.000070   -2.072039
   4 B   5.0000    0    10.810   -1.560804   -2.702773   -2.070744
   5 B   5.0000    0    10.810    1.560236   -2.702877   -2.072114
   6 B   5.0000    0    10.810    2.537573    1.465404    2.073705
   7 B   5.0000    0    10.810   -0.000018    2.931126    2.070658
   8 B   5.0000    0    10.810   -2.537420    1.465264    2.072002
   9 B   5.0000    0    10.810   -2.537659   -1.465172    2.071366
  10 B   5.0000    0    10.810    0.000479   -2.930439    2.070809
  11 B   5.0000    0    10.810    2.537857   -1.464866    2.070902

      -----------------------------------------------------------      
     |                   =====================                   |     
     |                           x T B                           |     
     |                   =====================                   |     
     |                         S. Grimme                         |     
     |          Mulliken Center for Theoretical Chemistry        |     
     |                    University of Bonn                     |     
      -----------------------------------------------------------      

   * xtb version 6.6.1 (unknown) compiled by 'builduser@buildhost' on 2023-08-07

   xtb is free software: you can redistribute it and/or modify it under
   the terms of the GNU Lesser General Public License as published by
   the Free Software Foundation, either version 3 of the License, or
   (at your option) any later version.
   
   xtb is distributed in the hope that it will be useful,
   but WITHOUT ANY WARRANTY; without even the implied warranty of
   MERCHANTABILITY or FITNESS FOR A PARTICULAR PURPOSE.  See the
   GNU Lesser General Public License for more details.
   
   Cite this work as:
   * C. Bannwarth, E. Caldeweyher, S. Ehlert, A. Hansen, P. Pracht,
     J. Seibert, S. Spicher, S. Grimme, WIREs Comput. Mol. Sci., 2020, 11,
     e01493. DOI: 10.1002/wcms.1493
   
   for GFN2-xTB:
   * C. Bannwarth, S. Ehlert and S. Grimme., J. Chem. Theory Comput., 2019,
     15, 1652-1671. DOI: 10.1021/acs.jctc.8b01176
   for GFN1-xTB:
   * S. Grimme, C. Bannwarth, P. Shushkov, J. Chem. Theory Comput., 2017,
     13, 1989-2009. DOI: 10.1021/acs.jctc.7b00118
   for GFN0-xTB:
   * P. Pracht, E. Caldeweyher, S. Ehlert, S. Grimme, ChemRxiv, 2019, preprint.
     DOI: 10.26434/chemrxiv.8326202.v1
   for GFN-FF:
   * S. Spicher and S. Grimme, Angew. Chem. Int. Ed., 2020, 59, 15665-15673.
     DOI: 10.1002/anie.202004239
   
   for ALPB and GBSA implicit solvation:
   * S. Ehlert, M. Stahn, S. Spicher, S. Grimme, J. Chem. Theory Comput.,
     2021, 17, 4250-4261. DOI: 10.1021/acs.jctc.1c00471
   
   for DFT-D4:
   * E. Caldeweyher, C. Bannwarth and S. Grimme, J. Chem. Phys., 2017,
     147, 034112. DOI: 10.1063/1.4993215
   * E. Caldeweyher, S. Ehlert, A. Hansen, H. Neugebauer, S. Spicher,
     C. Bannwarth and S. Grimme, J. Chem. Phys., 2019, 150, 154122.
     DOI: 10.1063/1.5090222
   * E. Caldeweyher, J.-M. Mewes, S. Ehlert and S. Grimme, Phys. Chem. Chem. Phys.
     2020, 22, 8499-8512. DOI: 10.1039/D0CP00502A
   
   for sTDA-xTB:
   * S. Grimme and C. Bannwarth, J. Chem. Phys., 2016, 145, 054103.
     DOI: 10.1063/1.4959605
   
   in the mass-spec context:
   * V. Asgeirsson, C. Bauer and S. Grimme, Chem. Sci., 2017, 8, 4879.
     DOI: 10.1039/c7sc00601b
   * J. Koopman and S. Grimme, ACS Omega 2019, 4, 12, 15120-15133.
     DOI: 10.1021/acsomega.9b02011
   
   for metadynamics refer to:
   * S. Grimme, J. Chem. Theory Comput., 2019, 155, 2847-2862
     DOI: 10.1021/acs.jctc.9b00143
   
   for SPH calculations refer to:
   * S. Spicher and S. Grimme, J. Chem. Theory Comput., 2021, 17, 1701-1714
     DOI: 10.1021/acs.jctc.0c01306
   
   with help from (in alphabetical order)
   P. Atkinson, C. Bannwarth, F. Bohle, G. Brandenburg, E. Caldeweyher
   M. Checinski, S. Dohm, S. Ehlert, S. Ehrlich, I. Gerasimov, C. Hölzer
   A. Katbashev, J. Koopman, C. Lavigne, S. Lehtola, F. März, M. Müller,
   F. Musil, H. Neugebauer, J. Pisarek, C. Plett, P. Pracht, F. Pultar,
   J. Seibert, P. Shushkov, S. Spicher, M. Stahn, M. Steiner, T. Strunk,
   J. Stückrath, T. Rose, and J. Unsleber
   
 * started run on 2026/04/17 at 12:14:29.328     

           -------------------------------------------------
          |                Calculation Setup                |
           -------------------------------------------------

          program call               : /usr/bin/xtb double_ring_6_6_d1.70_m3_XTB.xyz --grad -c 0 -u 2 -P 1 --namespace double_ring_6_6_d1.70_m3 --input double_ring_6_6_d1.70_m3_XTB.input.tmp --acc 0.200000
          calculation namespace      : double_ring_6_6_d1.70_m3
          coordinate file            : double_ring_6_6_d1.70_m3_XTB.xyz
          omp threads                :                     1

   ID    Z sym.   atoms
    1    5 B      1-12

molecular fragmentation (1/2 indicates fragments):
111111222222
# atoms in fragment 1/2:     6     6
 fragment masses (1/2) :       64.87       64.87
CMA distance (Bohr)    :   4.143
constraining FC (au)   :  0.0500

           -------------------------------------------------
          |                 G F N 2 - x T B                 |
           -------------------------------------------------

        Reference                      10.1021/acs.jctc.8b01176
      * Hamiltonian:
        H0-scaling (s, p, d)           1.850000    2.230000    2.230000
        zeta-weighting                 0.500000
      * Dispersion:
        s8                             2.700000
        a1                             0.520000
        a2                             5.000000
        s9                             5.000000
      * Repulsion:
        kExp                           1.500000    1.000000
        rExp                           1.000000
      * Coulomb:
        alpha                          2.000000
        third order                    shell-resolved
        anisotropic                    true
        a3                             3.000000
        a5                             4.000000
        cn-shift                       1.200000
        cn-exp                         4.000000
        max-rad                        5.000000

q/qsh data taken from xtbrestart
CAMM data taken from xtbrestart

          ...................................................
          :                      SETUP                      :
          :.................................................:
          :  # basis functions                  48          :
          :  # atomic orbitals                  48          :
          :  # shells                           24          :
          :  # electrons                        36          :
          :  max. iterations                   250          :
          :  Hamiltonian                  GFN2-xTB          :
          :  restarted?                       true          :
          :  GBSA solvation                  false          :
          :  PC potential                    false          :
          :  electronic temp.          300.0000000     K    :
          :  accuracy                    0.2000000          :
          :  -> integral cutoff          0.3198970E+02      :
          :  -> integral neglect         0.2000000E-08      :
          :  -> SCF convergence          0.2000000E-06 Eh   :
          :  -> wf. convergence          0.2000000E-04 e    :
          :  Broyden damping             0.4000000          :
          ...................................................

 iter      E             dE          RMSdq      gap      omega  full diag
   1    -14.3026944 -0.143027E+02  0.480E-01    0.97       0.0  T
   2    -14.3020711  0.623336E-03  0.346E-01    0.97       1.0  T
   3    -14.2691044  0.329667E-01  0.950E-01    0.98       1.0  T
   4    -14.3027373 -0.336330E-01  0.213E-02    0.97       1.4  T
   5    -14.3027327  0.462902E-05  0.191E-02    0.97       1.5  T
   6    -14.3027330 -0.339733E-06  0.174E-02    0.97       1.7  T
   7    -14.3027338 -0.720856E-06  0.150E-02    0.97       1.9  T
   8    -14.3027392 -0.546342E-05  0.178E-03    0.97      16.3  T
   9    -14.3027393 -0.401102E-07  0.991E-04    0.97      29.1  T
  10    -14.3027393  0.793165E-08  0.104E-03    0.97      27.8  T
  11    -14.3027393 -0.200860E-07  0.133E-04    0.97     216.8  T
[...]
   231. D(B  10,B  11,B   6,B   0)    -97.41  0.000003    0.01    -97.41   
   232. D(B  10,B  11,B   6,B   1)    -70.14 -0.000001    0.01    -70.13   
   233. D(B  10,B  11,B   6,B   7)      0.05 -0.000002    0.01      0.06   
   234. D(B   6,B  11,B  10,B   9)     -0.08 -0.000000   -0.01     -0.09   
   235. D(B   0,B  11,B   5,B   4)   -115.00  0.000004    0.00   -115.00   
   236. D(B  10,B  11,B   5,B   4)     31.52 -0.000008    0.02     31.55   
   237. D(B  10,B  11,B   5,B   0)    146.52 -0.000012    0.02    146.54   
   238. D(B   5,B  11,B  10,B   4)    -27.33 -0.000003   -0.00    -27.33   
   239. D(B   6,B  11,B   5,B  10)   -115.05  0.000011   -0.02   -115.07   
   240. D(B   6,B  11,B   5,B   4)    -83.53  0.000003    0.00    -83.52   
    ----------------------------------------------------------------------------

Geometry step timings:
Preparation and reading OPT file:      0.000 s ( 0.265 %)
Internal coordinates            :      0.000 s ( 0.378 %)
B/P matrices and projection     :      0.004 s (27.373 %)
Hessian update/contruction      :      0.003 s (22.086 %)
Making the step                 :      0.005 s (35.447 %)
Converting the step to Cartesian:      0.000 s ( 2.223 %)
Storing new data                :      0.000 s ( 0.411 %)
Checking convergence            :      0.000 s ( 1.188 %)
Final printing                  :      0.002 s (10.622 %)
Total time                      :      0.015 s
                 *******************************************************
                 *** FINAL ENERGY EVALUATION AT THE STATIONARY POINT ***
                 ***               (AFTER   12 CYCLES)               ***
                 *******************************************************
---------------------------------
CARTESIAN COORDINATES (ANGSTROEM)
---------------------------------
  B     1.571002    0.000631   -0.799815
  B     0.787087    1.363632   -0.797915
  B    -0.785272    1.361164   -0.799526
  B    -1.571501   -0.000427   -0.799822
  B    -0.786651   -1.362929   -0.798205
  B     0.785711   -1.361652   -0.799326
  B     1.362042    0.786549    0.799072
  B     0.000113    1.572316    0.798923
  B    -1.361926    0.786444    0.799565
  B    -1.361348   -0.786159    0.798975
  B    -0.000243   -1.573520    0.798486
  B     1.360985   -0.786048    0.799589

----------------------------
CARTESIAN COORDINATES (A.U.)
----------------------------
  NO LB    ZA    FRAG    MASS        X           Y           Z
   0 B   5.0000    0    10.810    2.968764    0.001192   -1.511431
   1 B   5.0000    0    10.810    1.487379    2.576892   -1.507841
   2 B   5.0000    0    10.810   -1.483950    2.572227   -1.510886
   3 B   5.0000    0    10.810   -2.969706   -0.000807   -1.511444
   4 B   5.0000    0    10.810   -1.486555   -2.575563   -1.508390
   5 B   5.0000    0    10.810    1.484779   -2.573150   -1.510507
   6 B   5.0000    0    10.810    2.573886    1.486362    1.510027
   7 B   5.0000    0    10.810    0.000214    2.971246    1.509745
   8 B   5.0000    0    10.810   -2.573668    1.486163    1.510959
   9 B   5.0000    0    10.810   -2.572575   -1.485625    1.509844
  10 B   5.0000    0    10.810   -0.000459   -2.973522    1.508919
  11 B   5.0000    0    10.810    2.571890   -1.485415    1.511005

      -----------------------------------------------------------      
     |                   =====================                   |     
     |                           x T B                           |     
     |                   =====================                   |     
     |                         S. Grimme                         |     
     |          Mulliken Center for Theoretical Chemistry        |     
     |                    University of Bonn                     |     
      -----------------------------------------------------------      

   * xtb version 6.6.1 (unknown) compiled by 'builduser@buildhost' on 2023-08-07

   xtb is free software: you can redistribute it and/or modify it under
   the terms of the GNU Lesser General Public License as published by
   the Free Software Foundation, either version 3 of the License, or
   (at your option) any later version.
   
   xtb is distributed in the hope that it will be useful,
   but WITHOUT ANY WARRANTY; without even the implied warranty of
   MERCHANTABILITY or FITNESS FOR A PARTICULAR PURPOSE.  See the
   GNU Lesser General Public License for more details.
   
   Cite this work as:
   * C. Bannwarth, E. Caldeweyher, S. Ehlert, A. Hansen, P. Pracht,
     J. Seibert, S. Spicher, S. Grimme, WIREs Comput. Mol. Sci., 2020, 11,
     e01493. DOI: 10.1002/wcms.1493
   
   for GFN2-xTB:
   * C. Bannwarth, S. Ehlert and S. Grimme., J. Chem. Theory Comput., 2019,
     15, 1652-1671. DOI: 10.1021/acs.jctc.8b01176
   for GFN1-xTB:
   * S. Grimme, C. Bannwarth, P. Shushkov, J. Chem. Theory Comput., 2017,
     13, 1989-2009. DOI: 10.1021/acs.jctc.7b00118
   for GFN0-xTB:
   * P. Pracht, E. Caldeweyher, S. Ehlert, S. Grimme, ChemRxiv, 2019, preprint.
     DOI: 10.26434/chemrxiv.8326202.v1
   for GFN-FF:
   * S. Spicher and S. Grimme, Angew. Chem. Int. Ed., 2020, 59, 15665-15673.
     DOI: 10.1002/anie.202004239
   
   for ALPB and GBSA implicit solvation:
   * S. Ehlert, M. Stahn, S. Spicher, S. Grimme, J. Chem. Theory Comput.,
     2021, 17, 4250-4261. DOI: 10.1021/acs.jctc.1c00471
   
   for DFT-D4:
   * E. Caldeweyher, C. Bannwarth and S. Grimme, J. Chem. Phys., 2017,
     147, 034112. DOI: 10.1063/1.4993215
   * E. Caldeweyher, S. Ehlert, A. Hansen, H. Neugebauer, S. Spicher,
     C. Bannwarth and S. Grimme, J. Chem. Phys., 2019, 150, 154122.
     DOI: 10.1063/1.5090222
   * E. Caldeweyher, J.-M. Mewes, S. Ehlert and S. Grimme, Phys. Chem. Chem. Phys.
     2020, 22, 8499-8512. DOI: 10.1039/D0CP00502A
   
   for sTDA-xTB:
   * S. Grimme and C. Bannwarth, J. Chem. Phys., 2016, 145, 054103.
     DOI: 10.1063/1.4959605
   
   in the mass-spec context:
   * V. Asgeirsson, C. Bauer and S. Grimme, Chem. Sci., 2017, 8, 4879.
     DOI: 10.1039/c7sc00601b
   * J. Koopman and S. Grimme, ACS Omega 2019, 4, 12, 15120-15133.
     DOI: 10.1021/acsomega.9b02011
   
   for metadynamics refer to:
   * S. Grimme, J. Chem. Theory Comput., 2019, 155, 2847-2862
     DOI: 10.1021/acs.jctc.9b00143
   
   for SPH calculations refer to:
   * S. Spicher and S. Grimme, J. Chem. Theory Comput., 2021, 17, 1701-1714
     DOI: 10.1021/acs.jctc.0c01306
   
   with help from (in alphabetical order)
   P. Atkinson, C. Bannwarth, F. Bohle, G. Brandenburg, E. Caldeweyher
   M. Checinski, S. Dohm, S. Ehlert, S. Ehrlich, I. Gerasimov, C. Hölzer
   A. Katbashev, J. Koopman, C. Lavigne, S. Lehtola, F. März, M. Müller,
   F. Musil, H. Neugebauer, J. Pisarek, C. Plett, P. Pracht, F. Pultar,
   J. Seibert, P. Shushkov, S. Spicher, M. Stahn, M. Steiner, T. Strunk,
   J. Stückrath, T. Rose, and J. Unsleber
   
 * started run on 2026/04/17 at 12:14:30.110     

           -------------------------------------------------
          |                Calculation Setup                |
           -------------------------------------------------

          program call               : /usr/bin/xtb double_ring_6_6_d1.70_m3_XTB.xyz --grad -c 0 -u 2 -P 1 --namespace double_ring_6_6_d1.70_m3 --input double_ring_6_6_d1.70_m3_XTB.input.tmp --acc 0.200000
          calculation namespace      : double_ring_6_6_d1.70_m3
          coordinate file            : double_ring_6_6_d1.70_m3_XTB.xyz
          omp threads                :                     1

   ID    Z sym.   atoms
    1    5 B      1-12

           -------------------------------------------------
          |                 G F N 2 - x T B                 |
           -------------------------------------------------

        Reference                      10.1021/acs.jctc.8b01176
      * Hamiltonian:
        H0-scaling (s, p, d)           1.850000    2.230000    2.230000
        zeta-weighting                 0.500000
      * Dispersion:
        s8                             2.700000
        a1                             0.520000
        a2                             5.000000
        s9                             5.000000
      * Repulsion:
        kExp                           1.500000    1.000000
        rExp                           1.000000
      * Coulomb:
        alpha                          2.000000
        third order                    shell-resolved
        anisotropic                    true
        a3                             3.000000
        a5                             4.000000
        cn-shift                       1.200000
        cn-exp                         4.000000
        max-rad                        5.000000

q/qsh data taken from xtbrestart
CAMM data taken from xtbrestart

          ...................................................
          :                      SETUP                      :
          :.................................................:
          :  # basis functions                  48          :
          :  # atomic orbitals                  48          :
          :  # shells                           24          :
          :  # electrons                        36          :
          :  max. iterations                   250          :
          :  Hamiltonian                  GFN2-xTB          :
          :  restarted?                       true          :
          :  GBSA solvation                  false          :
          :  PC potential                    false          :
          :  electronic temp.          300.0000000     K    :
          :  accuracy                    0.2000000          :
          :  -> integral cutoff          0.3198970E+02      :
          :  -> integral neglect         0.2000000E-08      :
          :  -> SCF convergence          0.2000000E-06 Eh   :
          :  -> wf. convergence          0.2000000E-04 e    :
          :  Broyden damping             0.4000000          :
          ...................................................

 iter      E             dE          RMSdq      gap      omega  full diag
   1    -14.4785817 -0.144786E+02  0.431E-03    1.90       0.0  T
   2    -14.4785817  0.652569E-07  0.339E-03    1.90       8.5  T
   3    -14.4785813  0.330919E-06  0.402E-03    1.90       7.2  T
   4    -14.4785816 -0.276833E-06  0.291E-03    1.90       9.9  T
   5    -14.4785817 -0.100840E-06  0.158E-03    1.90      18.2  T
   6    -14.4785817 -0.322149E-07  0.533E-04    1.90      54.2  T
   7    -14.4785817 -0.142857E-08  0.390E-04    1.90      74.1  T
   8    -14.4785817 -0.245167E-08  0.225E-05    1.90    1282.4  T
   9    -14.4785817 -0.288125E-11  0.172E-05    1.90    1681.6  T

   *** convergence criteria satisfied after 9 iterations ***

         #    Occupation            Energy/Eh            Energy/eV
      -------------------------------------------------------------
         1        2.0000           -0.4142437             -11.2721
       ...           ...                  ...                  ...
        13        2.0000           -0.2752876              -7.4910
        14        2.0000           -0.2752388              -7.4896
        15        2.0000           -0.2427513              -6.6056
        16        2.0000           -0.2427049              -6.6043
        17        1.5121           -0.2301641              -6.2631
        18        1.4879           -0.2300722              -6.2606
        19        1.0000           -0.1957278              -5.3260 (HOMO)
        20                         -0.1259459              -3.4272 (LUMO)
        21                         -0.1258132              -3.4236
        22                         -0.1150072              -3.1295
        23                         -0.1149625              -3.1283
        24                         -0.1007406              -2.7413
       ...                                ...                  ...
        48                          1.0903229              29.6692
      -------------------------------------------------------------
                  HL-Gap            0.0697818 Eh            1.8989 eV
             Fermi-level           -0.1954775 Eh           -5.3192 eV

 transition dipole moment (au) for excitation:          18          19
     X       Y       Z   
   0.0018  -0.0013  -0.0004  total (au/Debye):    0.002   0.006
 dE (eV)             :    0.935
 oscillator strength :  0.16242E-06

 SCC (total)                   0 d,  0 h,  0 min,  0.021 sec
 SCC setup                      ...        0 min,  0.000 sec (  0.864%)
 Dispersion                     ...        0 min,  0.000 sec (  0.385%)
 classical contributions        ...        0 min,  0.000 sec (  0.175%)
 integral evaluation            ...        0 min,  0.002 sec ( 11.610%)
 iterations                     ...        0 min,  0.009 sec ( 44.071%)
 molecular gradient             ...        0 min,  0.005 sec ( 24.186%)
 printout                       ...        0 min,  0.004 sec ( 18.576%)

         :::::::::::::::::::::::::::::::::::::::::::::::::::::
         ::                     SUMMARY                     ::
         :::::::::::::::::::::::::::::::::::::::::::::::::::::
         :: total energy             -14.260344885460 Eh    ::
         :: gradient norm              0.000342425500 Eh/a0 ::
         :: HOMO-LUMO gap              1.898860724436 eV    ::
         ::.................................................::
         :: SCC energy               -14.478581746420 Eh    ::
         :: -> isotropic ES            0.078117479188 Eh    ::
         :: -> anisotropic ES          0.003938008924 Eh    ::
         :: -> anisotropic XC         -0.028901793364 Eh    ::
         :: -> dispersion             -0.011314262249 Eh    ::
         :: repulsion energy           0.218234081787 Eh    ::
         :: add. restraining           0.000000000000 Eh    ::
         :: total charge               0.000000000000 e     ::
         :::::::::::::::::::::::::::::::::::::::::::::::::::::


Property printout bound to 'properties.out'

           -------------------------------------------------
          | TOTAL ENERGY              -14.260344885460 Eh   |
          | GRADIENT NORM               0.000342425500 Eh/α |
          | HOMO-LUMO GAP               1.898860724436 eV   |
           -------------------------------------------------

------------------------------------------------------------------------
 * finished run on 2026/04/17 at 12:14:30.142     
------------------------------------------------------------------------
 total:
 * wall-time:     0 d,  0 h,  0 min,  0.032 sec
 *  cpu-time:     0 d,  0 h,  0 min,  0.032 sec
 * ratio c/w:     0.999 speedup
 SCF:
 * wall-time:     0 d,  0 h,  0 min,  0.021 sec
 *  cpu-time:     0 d,  0 h,  0 min,  0.021 sec
 * ratio c/w:     0.999 speedup


-------------------------   --------------------
FINAL SINGLE POINT ENERGY       -14.260344885460
-------------------------   --------------------


-------------
DIPOLE MOMENT
-------------
                                X             Y             Z
Total Dipole Moment    :      0.00000      -0.00000      -0.00000
                        -----------------------------------------
Magnitude (a.u.)       :      0.00000
Magnitude (Debye)      :      0.00000

                                *** OPTIMIZATION RUN DONE ***


--------------------------------
SUGGESTED CITATIONS FOR THIS RUN
--------------------------------

Below you find a list of papers that are relevant to this ORCA run
We neither can nor want to force you to cite these papers, but we appreciate if you do
You receive ORCA, which is the product of decades of hard work by many enthusiastic individuals, for free
The only thing we kindly ask in return is that you cite our papers,
We deeply appreciate it, if you show your appreciation for ORCA by not just citing the generic ORCA reference.

Please note that relegating all ORCA citations to the supporting information does *not* help us.
SI sections are not indexed - citations you put there will not count into any citation statistics
But we need these citations in order to attract the funding resources that allow us to do what we are doing

Therefore, if you are a happy ORCA user, please consider citing a few of the papers listed below in the main body of your paper

In addition to the list printed below, the program has created the file double_ring_6_6_d1.70_m3.bibtex that contains the list in bibtex format
You can import this file easily into all common literature databanks and citation aid programs

It goes without saying that in many instances, there are alternative algorithms to achieve similar
results as the ones you have gotten from ORCA. It is, of course, also the case that in some instances
ORCA just re-implements algorithms worked out by others. We are fully aware of that and we are also
fully appreciative of our colleagues work. Hence this citation list should not be read as indicating
that the listed papers, which are focused on our own work, are the only ones worth citing. It simply
meant to make it easier for users to cite ORCA specific papers. It is not a substitute for doing your
own literature research and citing the relevant literature in a scientifically appropriate manner.

List of essential papers. We consider these as the minimum necessary citations

  1. Bannwarth, C.; Ehlert, S.; Grimme, S.
     GFN2-xTB—An Accurate and Broadly Parametrized Self-Consistent Tight-Binding Quantum Chemical Method with Multipole Electrostatics and Density-Dependent Dispersion Contributions
     J. Chem. Theory Comput. 2019 15(3), 1652-1671
     doi.org/10.1021/acs.jctc.8b01176
  2. Neese, F.
     Software update: the ORCA program system, version 6.0
     WIRES Comput. Molec. Sci. 2025 15(1), e70019
     doi.org/10.1002/wcms.70019

List of papers to cite with high priority. The work reported in these papers was absolutely
necessary for this run to complete.
Our perspective: the developers of density functionals and basis sets usually get cited in chemistry papers
Good! But without the algorithms to do something with them, the functionals or basis sets would not do anything.
Hence, in our opinion, the algorithm design and method developments papers are equally worthy of getting cited

  1. Bannwarth, C.; Caldeweyher, E.; Ehlert, S.; Hansen, A.; Pracht, P.; Seibert, J.; Spicher, S.; Grimme, S.
     Extended tight-binding quantum chemistry methods
     WIRES Comput. Molec. Sci. 2020 11(2), e1493
     doi.org/10.1002/wcms.1493

List of suggested additional citations. These are papers that are important in the 'surrounding' of 
of this run, or papers that preceded the highly important papers. If you like your results we are grateful for a citation.

  1. Neese, F.
     The ORCA program system
     WIRES Comput. Molec. Sci. 2012 2(1), 73-78
     doi.org/10.1002/wcms.81
  2. Neese, F.
     Software update: the ORCA program system, version 4.0
     WIRES Comput. Molec. Sci. 2018 8(1), 1-6
     doi.org/10.1002/wcms.1327
  3. Neese, F.; Wennmohs, F.; Becker, U.; Riplinger, C.
     The ORCA quantum chemistry program package
     J. Chem. Phys. 2020 152(22), 224108
     doi.org/10.1063/5.0004608
  4. Neese, F.
     Software update: The ORCA program system—Version 5.0
     WIRES Comput. Molec. Sci. 2022 12(1), e1606
     doi.org/10.1002/wcms.1606

List of optional additional citations

  1. Neese, F.
     Approximate second-order SCF convergence for spin unrestricted wavefunctions
     Chem. Phys. Lett. 2000 325(1-3), 93-98
     doi.org/10.1016/s0009-2614(00)00662-x

Timings for individual modules:

Sum of individual times          ...        0.879 sec (=   0.015 min)
Geometry relaxation              ...        0.252 sec (=   0.004 min)  28.7 %
XTB module                       ...        0.626 sec (=   0.010 min)  71.3 %
                             ****ORCA TERMINATED NORMALLY****
TOTAL RUN TIME: 0 days 0 hours 0 minutes 1 seconds 51 msec
