
                                 *****************
                                 * O   R   C   A *
                                 *****************

                                            #,                                       
                                            ###                                      
                                            ####                                     
                                            #####                                    
                                            ######                                   
                                           ########,                                 
                                     ,,################,,,,,                         
                               ,,#################################,,                 
                          ,,##########################################,,             
                       ,#########################################, ''#####,          
                    ,#############################################,,   '####,        
                  ,##################################################,,,,####,       
                ,###########''''           ''''###############################       
              ,#####''   ,,,,##########,,,,          '''####'''          '####       
            ,##' ,,,,###########################,,,                        '##       
           ' ,,###''''                  '''############,,,                           
         ,,##''                                '''############,,,,        ,,,,,,###''
      ,#''                                            '''#######################'''  
     '                                                          ''''####''''         
             ,#######,   #######,   ,#######,      ##                                
            ,#'     '#,  ##    ##  ,#'     '#,    #''#        ,####,    ,#,          
            ##       ##  ##   ,#'  ##            #'  '#       #'       ,# #          
            ##       ##  #######   ##           ,######,      #####,      #          
            '#,     ,#'  ##    ##  '#,     ,#' ,#      #,     #,   #      #          
             '#######'   ##     ##  '#######'  #'      '#     '####' #    #          



                #########################################################
                #                        -***-                          #
                #          Department of theory and spectroscopy        #
                #                                                       #
                #                      Frank Neese                      #
                #                                                       #
                #     Directorship, Architecture, Infrastructure        #
                #                    SHARK, DRIVERS                     #
                #        Core code/Algorithms in most modules           #
                #                                                       #
                #        Max Planck Institute fuer Kohlenforschung      #
                #                Kaiser Wilhelm Platz 1                 #
                #                 D-45470 Muelheim/Ruhr                 #
                #                      Germany                          #
                #                                                       #
                #                  All rights reserved                  #
                #                        -***-                          #
                #########################################################


                         Program Version 6.1.1  -  RELEASE   -
                                (GIT: $487d211c$)
                          ($2025-11-21 10:33:24 +0100$)
                                                                         
                                  - NO-DMRG VERSION -                    
                                                                         


 With contributions from (in alphabetic order):
[Max-Planck-Institut fuer Kohlenforschung]                               
  Daniel Aravena         : Magnetic Suceptibility                        
  Michael Atanasov       : Ab Initio Ligand Field Theory (pilot matlab implementation)
  Alexander A. Auer      : GIAO ZORA, VPT2 properties, NMR spectrum      
  Ute Becker             : All parallelization in ORCA, NUMFREQ, NUMCALC 
  Giovanni Bistoni       : ED, misc. LED, open-shell LED, HFLD           
  Dmytro Bykov           : pre 5.0 version of the SCF Hessian            
  Marcos Casanova-Páez   : Triplet and SCS-CIS(D). UHF-(DLPNO)-IP/EA/STEOM-CCSD. UHF-CVS-IP/STEOM-CCSD   
  Vijay G. Chilkuri      : MRCI spin determinant printing, contributions to CSF-ICE 
  Pauline Colinet        : FMM embedding                                 
  Dipayan Datta          : RHF DLPNO-CCSD density                        
  Achintya Kumar Dutta   : EOM-CC, STEOM-CC                              
  Nicolas Foglia         : Exact transition moments, OPA infrastructure, MCD improvements    
  Dmitry Ganyushin       : Spin-Orbit,Spin-Spin,Magnetic field MRCI      
  Miquel Garcia-Rates    : C-PCM and meta-GGA Hessian, CCSD/C-PCM, Gaussian charge scheme 
  Tiago L. C. Gouveia    : GS-ROHF, GS-ROCIS                             
  Yang Guo               : DLPNO-NEVPT2, F12-NEVPT2, CIM, IAO-localization        
  Andreas Hansen         : Spin unrestricted coupled pair/coupled cluster methods 
  Ingolf Harden          : AUTO-CI MPn and infrastructure                
  Benjamin Helmich-Paris : MC-RPA, TRAH-(SCF,CASSCF), AVAS, COSX integrals, SCF dyn. polar., MC-PDFT, srDFT 
  Lee Huntington         : MR-EOM, pCC                                   
  Robert Izsak           : Overlap fitted RIJCOSX, COSX-SCS-MP3, EOM     
  Riya Kayal             : Wick's Theorem for AUTO-CI, AUTO-CI UHF-CCSDT 
  Emily Kempfer          : AUTO-CI RHF CISDT and CCSDT, approximate NEVPT4
  Christian Kollmar      : KDIIS, OOCD, Brueckner-CCSD(T), CCSD density, CASPT2, CASPT2-K, improved NEVPT2 
  Axel Koslowski         : Symmetry handling                             
  Simone Kossmann        : meta-GGA functionals, TD-DFT gradient, OOMP2, (MP2 Hessian; deprecated post 5.0) 
  Lucas Lang             : DCDCAS, Hyperfine gauge corrections, ICE-SOC+SSC
  Marvin Lechner         : AUTO-CI (C++ implementation), FIC-MRCC        
  Spencer Leger          : CASSCF response                               
  Dagmar Lenk            : GEPOL surface, SMD, ORCA-2-JSON               
  Dimitrios Liakos       : Extrapolation schemes; Compound Job, Property file
  Dimitrios Manganas     : Further ROCIS development; embedding schemes. LFT, Crystal Embedding 
  Dimitrios Pantazis     : SARC Basis sets                               
  Anastasios Papadopoulos: AUTO-CI, single reference methods and gradients 
  Taras Petrenko         : pre 6.0 DFT Hessian and TD-DFT gradient,  ECA, NRVS 
  Petra Pikulova         : Analytic Raman intensities                    
  Peter Pinski           : DLPNO-MP2, DLPNO-MP2 Gradient                 
  Shashank Vittal Rao    : ES-AILFT, MagRelax                            
  Christoph Reimann      : Effective Core Potentials                     
  Marius Retegan         : Local ZFS, SOC                                
  Christoph Riplinger    : Optimizer, TS searches, QM/MM, DLPNO-CCSD(T), (RO)-DLPNO pert. Triples 
  Michael Roemelt        : Original ROCIS implementation, recursive CI coupling coefficients
  Masaaki Saitow         : Open-shell DLPNO-CCSD energy and density      
  Barbara Sandhoefer     : DKH picture change effects                    
  Yorick L. A. Schmerwitz: GMF and freeze-and-release deltaSCF, NEB S-IDPP initial path                    
  Kantharuban Sivalingam : CASSCF convergence/infrastructure, NEVPT2, NEVPT3, NEVPT4(SD), FIC-MRCI and CEPA variants
  Bernardo de Souza      : ESD, SOC TD-DFT                               
  Georgi L. Stoychev     : AutoAux, RI-MP2 NMR, DLPNO-MP2 response, X2C  
  Van Anh Tran           : RI-MP2 g-tensors                              
  Willem Van den Heuvel  : Paramagnetic NMR                              
  Zikuan Wang            : NOTCH, Electric field optimization            
  Frank Wennmohs         : Technical directorship and infrastructure     
  Hang Xu                : AUTO-CI-Response properties                   
                                                                         
[FACCTs GmbH]                                                            
  Markus Bursch, Nicolas Foglia, Miquel Garcia-Rates, Ingolf Harden, Hagen Neugebauer, Anastasios Papadopoulos, 
  Christoph Riplinger, Bernardo de Souza, Georgi L. Stoychev                                                    
                                                                 
  APM, various basis sets, CI-OPT, improved COSX, DLPNO-Multilevel,           
  DOCKER, DRACO, updates on ESD, Fragmentator, GOAT, IRC, LR-CPCM, L-BFGS, MBIS, meta-GGA TD-DFT gradient, ML-optimized integration grids, 
  MM, NACMEs, nearIR, NEB, NEB-TS, NL-DFT gradient (VV10), 2- and 3-layer-ONIOM, interface openCOSMO-RS, QMMM,   
  Crystal-QMMM, RESP, rigid body optimization, SF, symmetry and pop. for TD-DFT, various functionals, SOLVATOR                                   
                                                                         
[Other institutions]                                                     
  V. Asgeirsson          : NEB                                           
  Christoph Bannwarth    : sTDA-DFT, sTD-DFT, PBEh-3c, B97-3c, D3        
  Giovanni Bistoni       : ETS/NOCV, ADLD/ADEX, COVALED                  
  Martin Brehm           : Molecular dynamics                            
  Ronald Cardenas        : ETS/NOCV                                      
  Martina Colucci        : COVALED                                       
  Sebastian Ehlert       : rSCAN, r2SCAN, r2SCAN-3c, D4, dhf basis sets  
  Marvin Friede          : D4 for Fr, Ra, Ac-Lr                          
  Lars Goerigk           : TD-DFT with DH, B97 family of functionals     
  Stefan Grimme          : VdW corrections, initial TS optimization, DFT functionals, gCP, sTDA/sTD-DF 
  Waldemar Hujo          : DFT-NL                                        
  H. Jonsson             : NEB                                           
  Holger Kruse           : gCP                                           
  Marcel Mueller         : wB97X-3c, vDZP basis set                      
  Hagen Neugebauer       : wr2SCAN, Native XTB                           
  Gianluca Regni         : ADLD/ADEX                                     
  Tobias Risthaus        : pre 6.0 range-separated hybrid DFT and stability analysis
  Lukas Wittmann         : regularized MP2, r2SCAN double-hybrids, wr2SCAN        
                                                                         
We gratefully acknowledge several colleagues who have allowed us to      
interface, adapt or use parts of their codes:                            
  Ed Valeev, F. Pavosevic, A. Kumar             : LibInt (2-el integral package), F12 methods 
  Garnet Chan, S. Sharma, J. Yang, R. Olivares  : DMRG                   
  Ulf Ekstrom                                   : XCFun DFT Library      
  Mihaly Kallay                                 : mrcc  (arbitrary order and MRCC methods)
  Frank Weinhold                                : gennbo (NPA and NBO analysis)           
  Simon Mueller                                 : openCOSMO-RS                            
  Christopher J. Cramer and Donald G. Truhlar   : smd solvation model                     
  S Lehtola, MJT Oliveira, MAL Marques          : LibXC Library                           
  Liviu Ungur et al                             : ANISO software                          


 Your calculation uses the libint2 library for the computation of 2-el integrals
 For citations please refer to: http://libint.valeyev.net

 Your ORCA version has been built with support for libXC version: 7.0.0
 For citations please refer to: https://libxc.gitlab.io

 This ORCA versions uses:
   CBLAS   interface :  Fast vector & matrix operations
   LAPACKE interface :  Fast linear algebra routines
   SCALAPACK package :  Parallel linear algebra routines
   Shared memory     :  Shared parallel matrices
   BLAS/LAPACK       :  OpenBLAS 0.3.29  USE64BITINT DYNAMIC_ARCH NO_AFFINITY Zen SINGLE_THREADED
        Core in use  :  Zen
   Copyright (c) 2011-2014, The OpenBLAS Project


  ***********************************
  * Starting time: Fri Apr 17 12:14:29 2026
  * Host name:     vmi3233575
  * Process ID:    335699
  * Working dir.:  /root/orca_b12_vps_pack/jobs/01_xtb/mult_3
  ***********************************

NOTE: MaxCore=500 MB was set to SCF,MP2,MDCI,CIPSI,MRCI,RASCI and CIS
      => If you want to overwrite this, your respective input block should be placed after the MaxCore statement


***************************************
The coordinates will be read from file: ../../../starts/double_ring_6_6_d1.90.xyz
***************************************


Your calculation utilizes the semiempirical GFN2-xTB method
Please cite in your paper:
Bannwarth, C.; Ehlert S.; Grimme, S. J. Chem. Theory Comput. 2019, 15, 1652.
   

================================================================================

================================================================================
                                        WARNINGS
                       Please study these warnings very carefully!
================================================================================


WARNING: Geometry Optimization
  ===> : Switching off AutoStart
         For restart on a previous wavefunction, please use MOREAD

WARNING: Found dipole moment calculation with XTB calculation
  ===> : Switching off dipole moment calculation

Environment variable XTBEXE for xtb has been set!

================================================================================
                                       INPUT FILE
================================================================================
NAME = double_ring_6_6_d1.90_m3.inp
|  1> ! GFN2-xTB TightSCF TightOpt
|  2> 
|  3> %pal
|  4>   nprocs 1
|  5> end
|  6> 
|  7> %maxcore 500
|  8> 
|  9> * xyzfile 0 3 ../../../starts/double_ring_6_6_d1.90.xyz
| 10> 
| 11>                          ****END OF INPUT****
================================================================================

                       *****************************
                       * Geometry Optimization Run *
                       *****************************

Geometry optimization settings:
Update method            Update   .... BFGS
Choice of coordinates    CoordSys .... (2022) Redundant Internals
Initial Hessian          InHess   .... Almloef's Model
Max. no of cycles        MaxIter  .... 50

Convergence Tolerances:
Energy Change            TolE     ....  1.0000e-06 Eh
Max. Gradient            TolMAXG  ....  1.0000e-04 Eh/bohr
RMS Gradient             TolRMSG  ....  3.0000e-05 Eh/bohr
Max. Displacement        TolMAXD  ....  1.0000e-03 bohr
RMS Displacement         TolRMSD  ....  6.0000e-04 bohr
Strict Convergence                .... False

------------------------------------------------------------------------------
                        ORCA OPTIMIZATION COORDINATE SETUP
------------------------------------------------------------------------------

The optimization will be done in redundant internal coordinates (2022)
Making redundant internal coordinates   ...  (2022 redundants) done
Evaluating the initial hessian          ...  (Almloef) done
Evaluating the coordinates              ...  done
Calculating the B-matrix                .... done
Calculating the G-matrix                .... done
The number of degrees of freedom        ....  240

    -----------------------------------------------------------------
                    Redundant Internal Coordinates


    -----------------------------------------------------------------
         Definition                    Initial Value    Approx d2E/dq
    -----------------------------------------------------------------
      1. B(B   1,B   0)                  1.9000         0.128736   
      2. B(B   2,B   1)                  1.9000         0.128736   
      3. B(B   3,B   2)                  1.9000         0.128736   
      4. B(B   4,B   3)                  1.9000         0.128736   
      5. B(B   5,B   0)                  1.9000         0.128736   
      6. B(B   5,B   4)                  1.9000         0.128736   
      7. B(B   6,B   1)                  2.6484         0.010000   
      8. B(B   6,B   0)                  2.6484         0.010000   
      9. B(B   7,B   6)                  1.7480         0.225013   
     10. B(B   7,B   2)                  2.6484         0.010000   
     11. B(B   7,B   1)                  2.6484         0.010000   
     12. B(B   8,B   2)                  2.6484         0.010000   
     13. B(B   8,B   3)                  2.6484         0.010000   
     14. B(B   8,B   7)                  1.7480         0.225013   
     15. B(B   9,B   4)                  2.6484         0.010000   
     16. B(B   9,B   3)                  2.6484         0.010000   
     17. B(B   9,B   8)                  1.7480         0.225013   
     18. B(B  10,B   5)                  2.6484         0.010000   
     19. B(B  10,B   9)                  1.7480         0.225013   
     20. B(B  10,B   4)                  2.6484         0.010000   
     21. B(B  11,B  10)                  1.7480         0.225013   
     22. B(B  11,B   0)                  2.6484         0.010000   
     23. B(B  11,B   6)                  1.7480         0.225013   
     24. B(B  11,B   5)                  2.6484         0.010000   
     25. A(B   1,B   0,B   6)           68.9790         0.183863   
     26. A(B   1,B   0,B   5)          120.0000         0.265742   
     27. A(B   5,B   0,B  11)           68.9790         0.183863   
     28. A(B   5,B   0,B   6)          102.2917         0.183863   
     29. A(B   6,B   0,B  11)           38.5391         0.139915   
     30. A(B   1,B   0,B  11)          102.2917         0.183863   
     31. A(B   0,B   1,B   6)           68.9790         0.183863   
     32. A(B   0,B   1,B   2)          120.0000         0.265742   
     33. A(B   0,B   1,B   7)          102.2917         0.183863   
     34. A(B   6,B   1,B   7)           38.5391         0.139915   
     35. A(B   2,B   1,B   7)           68.9790         0.183863   
     36. A(B   2,B   1,B   6)          102.2917         0.183863   
     37. A(B   1,B   2,B   7)           68.9790         0.183863   
     38. A(B   3,B   2,B   7)          102.2917         0.183863   
     39. A(B   3,B   2,B   8)           68.9790         0.183863   
     40. A(B   1,B   2,B   8)          102.2917         0.183863   
     41. A(B   1,B   2,B   3)          120.0000         0.265742   
     42. A(B   7,B   2,B   8)           38.5391         0.139915   
     43. A(B   2,B   3,B   9)          102.2917         0.183863   
     44. A(B   4,B   3,B   8)          102.2917         0.183863   
     45. A(B   2,B   3,B   8)           68.9790         0.183863   
     46. A(B   8,B   3,B   9)           38.5391         0.139915   
     47. A(B   2,B   3,B   4)          120.0000         0.265742   
     48. A(B   4,B   3,B   9)           68.9790         0.183863   
     49. A(B   5,B   4,B  10)           68.9790         0.183863   
     50. A(B   3,B   4,B  10)          102.2917         0.183863   
     51. A(B   5,B   4,B   9)          102.2917         0.183863   
     52. A(B   3,B   4,B   5)          120.0000         0.265742   
     53. A(B   3,B   4,B   9)           68.9790         0.183863   
     54. A(B   9,B   4,B  10)           38.5391         0.139915   
     55. A(B   4,B   5,B  11)          102.2917         0.183863   
     56. A(B   0,B   5,B  11)           68.9790         0.183863   
     57. A(B  10,B   5,B  11)           38.5391         0.139915   
     58. A(B   0,B   5,B   4)          120.0000         0.265742   
     59. A(B   4,B   5,B  10)           68.9790         0.183863   
     60. A(B   0,B   5,B  10)          102.2917         0.183863   
     61. A(B   1,B   6,B   7)           70.7304         0.196642   
     62. A(B   7,B   6,B  11)          120.0000         0.316571   
     63. A(B   0,B   6,B   1)           42.0420         0.139915   
     64. A(B   0,B   6,B  11)           70.7304         0.196642   
     65. A(B   0,B   6,B   7)          106.9352         0.196642   
     66. A(B   1,B   6,B  11)          106.9352         0.196642   
     67. A(B   6,B   7,B   8)          120.0000         0.316571   
     68. A(B   1,B   7,B   2)           42.0420         0.139915   
     69. A(B   1,B   7,B   8)          106.9352         0.196642   
     70. A(B   1,B   7,B   6)           70.7304         0.196642   
     71. A(B   2,B   7,B   8)           70.7304         0.196642   
     72. A(B   2,B   7,B   6)          106.9352         0.196642   
     73. A(B   2,B   8,B   3)           42.0420         0.139915   
     74. A(B   3,B   8,B   9)           70.7304         0.196642   
     75. A(B   3,B   8,B   7)          106.9352         0.196642   
     76. A(B   2,B   8,B   9)          106.9352         0.196642   
     77. A(B   2,B   8,B   7)           70.7304         0.196642   
     78. A(B   7,B   8,B   9)          120.0000         0.316571   
     79. A(B   3,B   9,B   4)           42.0420         0.139915   
     80. A(B   3,B   9,B  10)          106.9352         0.196642   
     81. A(B   3,B   9,B   8)           70.7304         0.196642   
     82. A(B   4,B   9,B  10)           70.7304         0.196642   
     83. A(B   4,B   9,B   8)          106.9352         0.196642   
     84. A(B   8,B   9,B  10)          120.0000         0.316571   
     85. A(B   4,B  10,B   9)           70.7304         0.196642   
     86. A(B   4,B  10,B   5)           42.0420         0.139915   
     87. A(B   5,B  10,B  11)           70.7304         0.196642   
     88. A(B   5,B  10,B   9)          106.9352         0.196642   
     89. A(B   9,B  10,B  11)          120.0000         0.316571   
     90. A(B   4,B  10,B  11)          106.9352         0.196642   
     91. A(B   5,B  11,B  10)           70.7304         0.196642   
     92. A(B   5,B  11,B   6)          106.9352         0.196642   
     93. A(B   6,B  11,B  10)          120.0000         0.316571   
     94. A(B   0,B  11,B   5)           42.0420         0.139915   
     95. A(B   0,B  11,B  10)          106.9352         0.196642   
     96. A(B   0,B  11,B   6)           70.7304         0.196642   
     97. D(B   2,B   1,B   0,B   6)    -92.3775         0.010000   
     98. D(B   2,B   1,B   0,B   5)      0.0000         0.010000   
     99. D(B   6,B   1,B   0,B  11)     19.7225         0.010000   
    100. D(B   2,B   1,B   0,B  11)    -72.6550         0.010000   
    101. D(B   7,B   1,B   0,B   5)     72.6550         0.010000   
    102. D(B   6,B   1,B   0,B   5)     92.3775         0.010000   
    103. D(B   8,B   2,B   1,B   7)    -19.7225         0.010000   
    104. D(B   3,B   2,B   1,B   6)    -72.6550         0.010000   
    105. D(B   3,B   2,B   1,B   0)      0.0000         0.010000   
    106. D(B   8,B   2,B   1,B   0)     72.6550         0.010000   
    107. D(B   8,B   2,B   1,B   6)      0.0000         0.010000   
    108. D(B   3,B   2,B   1,B   7)    -92.3775         0.010000   
    109. D(B   4,B   3,B   2,B   7)    -72.6550         0.010000   
    110. D(B   8,B   3,B   2,B   1)     92.3775         0.010000   
    111. D(B   4,B   3,B   2,B   8)    -92.3775         0.010000   
    112. D(B   4,B   3,B   2,B   1)      0.0000         0.010000   
    113. D(B   9,B   3,B   2,B   1)     72.6550         0.010000   
    114. D(B   8,B   3,B   2,B   7)     19.7225         0.010000   
    115. D(B   5,B   4,B   3,B   9)    -92.3775         0.010000   
    116. D(B   9,B   4,B   3,B   2)     92.3775         0.010000   
    117. D(B   5,B   4,B   3,B   2)      0.0000         0.010000   
    118. D(B   5,B   4,B   3,B   8)    -72.6550         0.010000   
    119. D(B   9,B   4,B   3,B   8)     19.7225         0.010000   
    120. D(B  10,B   4,B   3,B   2)     72.6550         0.010000   
    121. D(B   4,B   5,B   0,B   6)     72.6550         0.010000   
    122. D(B  11,B   5,B   0,B   6)    -19.7225         0.010000   
    123. D(B  10,B   5,B   0,B   1)    -72.6550         0.010000   
    124. D(B   4,B   5,B   0,B  11)     92.3775         0.010000   
    125. D(B   4,B   5,B   0,B   1)      0.0000         0.010000   
    126. D(B   0,B   5,B   4,B   3)      0.0000         0.010000   
    127. D(B  11,B   5,B   0,B   1)    -92.3775         0.010000   
    128. D(B  11,B   5,B   4,B   9)      0.0000         0.010000   
    129. D(B   0,B   5,B   4,B  10)    -92.3775         0.010000   
    130. D(B  11,B   5,B   4,B   3)     72.6550         0.010000   
    131. D(B  11,B   5,B   4,B  10)    -19.7225         0.010000   
    132. D(B   0,B   5,B   4,B   9)    -72.6550         0.010000   
    133. D(B   0,B   6,B   1,B   2)    117.6769         0.010000   
    134. D(B  11,B   6,B   1,B   2)     86.1959         0.010000   
    135. D(B  11,B   6,B   1,B   0)    -31.4810         0.010000   
    136. D(B   7,B   6,B   1,B   2)    -30.3704         0.010000   
    137. D(B   7,B   6,B   1,B   0)   -148.0473         0.010000   
    138. D(B   1,B   6,B   0,B   5)   -117.6769         0.010000   
    139. D(B   7,B   6,B   0,B  11)   -116.5664         0.010000   
    140. D(B   7,B   6,B   0,B   5)    -86.1959         0.010000   
    141. D(B   7,B   6,B   0,B   1)     31.4810         0.010000   
    142. D(B  11,B   6,B   1,B   7)    116.5664         0.010000   
    143. D(B  11,B   6,B   0,B   1)    148.0473         0.010000   
    144. D(B  11,B   6,B   0,B   5)     30.3704         0.010000   
    145. D(B   8,B   7,B   6,B   1)     98.8863         0.010000   
    146. D(B   8,B   7,B   6,B  11)      0.0000         0.010000   
    147. D(B   1,B   7,B   2,B   3)    117.6769         0.010000   
    148. D(B   6,B   7,B   2,B   1)    -31.4810         0.010000   
    149. D(B   6,B   7,B   2,B   3)     86.1959         0.010000   
    150. D(B   8,B   7,B   2,B   1)   -148.0473         0.010000   
    151. D(B   2,B   7,B   1,B   0)   -117.6769         0.010000   
    152. D(B   8,B   7,B   2,B   3)    -30.3704         0.010000   
    153. D(B   8,B   7,B   1,B   6)   -116.5664         0.010000   
    154. D(B   8,B   7,B   1,B   2)     31.4810         0.010000   
    155. D(B   6,B   7,B   2,B   8)    116.5664         0.010000   
    156. D(B   6,B   7,B   1,B   0)     30.3704         0.010000   
    157. D(B   6,B   7,B   1,B   2)    148.0473         0.010000   
    158. D(B   8,B   7,B   6,B   0)     77.1417         0.010000   
    159. D(B   8,B   7,B   1,B   0)    -86.1959         0.010000   
    160. D(B   2,B   7,B   6,B   0)      0.0000         0.010000   
    161. D(B   2,B   7,B   6,B   1)     21.7446         0.010000   
    162. D(B   2,B   7,B   6,B  11)    -77.1417         0.010000   
    163. D(B   3,B   8,B   7,B   6)    -77.1417         0.010000   
    164. D(B   2,B   8,B   7,B   1)    -21.7446         0.010000   
    165. D(B   2,B   8,B   7,B   6)    -98.8863         0.010000   
    166. D(B   9,B   8,B   7,B   1)     77.1417         0.010000   
    167. D(B   9,B   8,B   7,B   2)     98.8863         0.010000   
    168. D(B   2,B   8,B   3,B   4)    117.6769         0.010000   
    169. D(B   9,B   8,B   3,B   4)    -30.3704         0.010000   
    170. D(B   9,B   8,B   3,B   2)   -148.0473         0.010000   
    171. D(B   7,B   8,B   3,B   9)    116.5664         0.010000   
    172. D(B   7,B   8,B   3,B   4)     86.1959         0.010000   
    173. D(B   7,B   8,B   3,B   2)    -31.4810         0.010000   
    174. D(B   9,B   8,B   7,B   6)      0.0000         0.010000   
    175. D(B   3,B   8,B   2,B   1)   -117.6769         0.010000   
    176. D(B   9,B   8,B   2,B   1)    -86.1959         0.010000   
    177. D(B   7,B   8,B   2,B   3)    148.0473         0.010000   
    178. D(B   7,B   8,B   2,B   1)     30.3704         0.010000   
    179. D(B   9,B   8,B   2,B   7)   -116.5664         0.010000   
    180. D(B   9,B   8,B   2,B   3)     31.4810         0.010000   
    181. D(B   4,B   9,B   8,B   3)     21.7446         0.010000   
    182. D(B   4,B   9,B   8,B   2)      0.0000         0.010000   
    183. D(B   4,B   9,B   8,B   7)    -77.1417         0.010000   
    184. D(B  10,B   9,B   8,B   3)     98.8863         0.010000   
    185. D(B  10,B   9,B   8,B   2)     77.1417         0.010000   
    186. D(B  10,B   9,B   8,B   7)      0.0000         0.010000   
    187. D(B   3,B   9,B   4,B   5)    117.6769         0.010000   
    188. D(B  10,B   9,B   4,B   5)    -30.3704         0.010000   
    189. D(B  10,B   9,B   4,B   3)   -148.0473         0.010000   
    190. D(B   8,B   9,B   4,B  10)    116.5664         0.010000   
    191. D(B   8,B   9,B   4,B   5)     86.1959         0.010000   
    192. D(B   8,B   9,B   4,B   3)    -31.4810         0.010000   
    193. D(B   4,B   9,B   3,B   2)   -117.6769         0.010000   
    194. D(B  10,B   9,B   3,B   8)   -116.5664         0.010000   
    195. D(B  10,B   9,B   3,B   4)     31.4810         0.010000   
    196. D(B  10,B   9,B   3,B   2)    -86.1959         0.010000   
    197. D(B   8,B   9,B   3,B   4)    148.0473         0.010000   
    198. D(B   8,B   9,B   3,B   2)     30.3704         0.010000   
    199. D(B   5,B  10,B   9,B   8)    -77.1417         0.010000   
    200. D(B   4,B  10,B   9,B   8)    -98.8863         0.010000   
    201. D(B  11,B  10,B   9,B   3)     77.1417         0.010000   
    202. D(B  11,B  10,B   9,B   4)     98.8863         0.010000   
    203. D(B  11,B  10,B   9,B   8)      0.0000         0.010000   
    204. D(B   4,B  10,B   5,B   0)    117.6769         0.010000   
    205. D(B  11,B  10,B   5,B   4)   -148.0473         0.010000   
    206. D(B  11,B  10,B   5,B   0)    -30.3704         0.010000   
    207. D(B   9,B  10,B   5,B  11)    116.5664         0.010000   
    208. D(B   9,B  10,B   5,B   4)    -31.4810         0.010000   
    209. D(B   9,B  10,B   5,B   0)     86.1959         0.010000   
    210. D(B   5,B  10,B   4,B   3)   -117.6769         0.010000   
    211. D(B  11,B  10,B   4,B   9)   -116.5664         0.010000   
    212. D(B  11,B  10,B   4,B   5)     31.4810         0.010000   
    213. D(B  11,B  10,B   4,B   3)    -86.1959         0.010000   
    214. D(B   4,B  10,B   9,B   3)    -21.7446         0.010000   
    215. D(B   9,B  10,B   4,B   5)    148.0473         0.010000   
    216. D(B   9,B  10,B   4,B   3)     30.3704         0.010000   
    217. D(B   5,B  11,B   0,B   1)    117.6769         0.010000   
    218. D(B  10,B  11,B   0,B   6)    116.5664         0.010000   
    219. D(B  10,B  11,B   0,B   5)    -31.4810         0.010000   
    220. D(B  10,B  11,B   0,B   1)     86.1959         0.010000   
    221. D(B   6,B  11,B   0,B   5)   -148.0473         0.010000   
    222. D(B   6,B  11,B   5,B   0)     31.4810         0.010000   
    223. D(B   6,B  11,B   0,B   1)    -30.3704         0.010000   
    224. D(B   0,B  11,B  10,B   9)    -77.1417         0.010000   
    225. D(B   5,B  11,B  10,B   9)    -98.8863         0.010000   
    226. D(B   6,B  11,B  10,B   5)     98.8863         0.010000   
    227. D(B   6,B  11,B  10,B   4)     77.1417         0.010000   
    228. D(B   5,B  11,B   6,B   0)    -21.7446         0.010000   
    229. D(B   5,B  11,B   6,B   1)      0.0000         0.010000   
    230. D(B   5,B  11,B   6,B   7)     77.1417         0.010000   
    231. D(B  10,B  11,B   6,B   0)    -98.8863         0.010000   
    232. D(B  10,B  11,B   6,B   1)    -77.1417         0.010000   
    233. D(B  10,B  11,B   6,B   7)      0.0000         0.010000   
    234. D(B   6,B  11,B  10,B   9)      0.0000         0.010000   
    235. D(B   0,B  11,B   5,B   4)   -117.6769         0.010000   
    236. D(B  10,B  11,B   5,B   4)     30.3704         0.010000   
    237. D(B  10,B  11,B   5,B   0)    148.0473         0.010000   
    238. D(B   5,B  11,B  10,B   4)    -21.7446         0.010000   
    239. D(B   6,B  11,B   5,B  10)   -116.5664         0.010000   
    240. D(B   6,B  11,B   5,B   4)    -86.1959         0.010000   
    -----------------------------------------------------------------

Number of atoms                         .... 12
Number of degrees of freedom            .... 240


         *************************************************************
         *                GEOMETRY OPTIMIZATION CYCLE   1            *
         *************************************************************
---------------------------------
CARTESIAN COORDINATES (ANGSTROEM)
---------------------------------
  B     1.900000   -0.000000   -1.235000
  B     0.950000    1.645448   -1.235000
  B    -0.950000    1.645448   -1.235000
  B    -1.900000    0.000000   -1.235000
  B    -0.950000   -1.645448   -1.235000
  B     0.950000   -1.645448   -1.235000
  B     1.513812    0.874000    1.235000
  B     0.000000    1.748000    1.235000
  B    -1.513812    0.874000    1.235000
  B    -1.513812   -0.874000    1.235000
  B    -0.000000   -1.748000    1.235000
  B     1.513812   -0.874000    1.235000

----------------------------
CARTESIAN COORDINATES (A.U.)
----------------------------
  NO LB    ZA    FRAG    MASS        X           Y           Z
   0 B   5.0000    0    10.810    3.590480   -0.000000   -2.333812
   1 B   5.0000    0    10.810    1.795240    3.109447   -2.333812
   2 B   5.0000    0    10.810   -1.795240    3.109447   -2.333812
   3 B   5.0000    0    10.810   -3.590480    0.000000   -2.333812
   4 B   5.0000    0    10.810   -1.795240   -3.109447   -2.333812
   5 B   5.0000    0    10.810    1.795240   -3.109447   -2.333812
   6 B   5.0000    0    10.810    2.860691    1.651621    2.333812
   7 B   5.0000    0    10.810    0.000000    3.303241    2.333812
   8 B   5.0000    0    10.810   -2.860691    1.651621    2.333812
   9 B   5.0000    0    10.810   -2.860691   -1.651621    2.333812
  10 B   5.0000    0    10.810   -0.000000   -3.303241    2.333812
  11 B   5.0000    0    10.810    2.860691   -1.651621    2.333812

      -----------------------------------------------------------      
     |                   =====================                   |     
     |                           x T B                           |     
     |                   =====================                   |     
     |                         S. Grimme                         |     
     |          Mulliken Center for Theoretical Chemistry        |     
     |                    University of Bonn                     |     
      -----------------------------------------------------------      

   * xtb version 6.6.1 (unknown) compiled by 'builduser@buildhost' on 2023-08-07

   xtb is free software: you can redistribute it and/or modify it under
   the terms of the GNU Lesser General Public License as published by
   the Free Software Foundation, either version 3 of the License, or
   (at your option) any later version.
   
   xtb is distributed in the hope that it will be useful,
   but WITHOUT ANY WARRANTY; without even the implied warranty of
   MERCHANTABILITY or FITNESS FOR A PARTICULAR PURPOSE.  See the
   GNU Lesser General Public License for more details.
   
   Cite this work as:
   * C. Bannwarth, E. Caldeweyher, S. Ehlert, A. Hansen, P. Pracht,
     J. Seibert, S. Spicher, S. Grimme, WIREs Comput. Mol. Sci., 2020, 11,
     e01493. DOI: 10.1002/wcms.1493
   
   for GFN2-xTB:
   * C. Bannwarth, S. Ehlert and S. Grimme., J. Chem. Theory Comput., 2019,
     15, 1652-1671. DOI: 10.1021/acs.jctc.8b01176
   for GFN1-xTB:
   * S. Grimme, C. Bannwarth, P. Shushkov, J. Chem. Theory Comput., 2017,
     13, 1989-2009. DOI: 10.1021/acs.jctc.7b00118
   for GFN0-xTB:
   * P. Pracht, E. Caldeweyher, S. Ehlert, S. Grimme, ChemRxiv, 2019, preprint.
     DOI: 10.26434/chemrxiv.8326202.v1
   for GFN-FF:
   * S. Spicher and S. Grimme, Angew. Chem. Int. Ed., 2020, 59, 15665-15673.
     DOI: 10.1002/anie.202004239
   
   for ALPB and GBSA implicit solvation:
   * S. Ehlert, M. Stahn, S. Spicher, S. Grimme, J. Chem. Theory Comput.,
     2021, 17, 4250-4261. DOI: 10.1021/acs.jctc.1c00471
   
   for DFT-D4:
   * E. Caldeweyher, C. Bannwarth and S. Grimme, J. Chem. Phys., 2017,
     147, 034112. DOI: 10.1063/1.4993215
   * E. Caldeweyher, S. Ehlert, A. Hansen, H. Neugebauer, S. Spicher,
     C. Bannwarth and S. Grimme, J. Chem. Phys., 2019, 150, 154122.
     DOI: 10.1063/1.5090222
   * E. Caldeweyher, J.-M. Mewes, S. Ehlert and S. Grimme, Phys. Chem. Chem. Phys.
     2020, 22, 8499-8512. DOI: 10.1039/D0CP00502A
   
   for sTDA-xTB:
   * S. Grimme and C. Bannwarth, J. Chem. Phys., 2016, 145, 054103.
     DOI: 10.1063/1.4959605
   
   in the mass-spec context:
   * V. Asgeirsson, C. Bauer and S. Grimme, Chem. Sci., 2017, 8, 4879.
     DOI: 10.1039/c7sc00601b
   * J. Koopman and S. Grimme, ACS Omega 2019, 4, 12, 15120-15133.
     DOI: 10.1021/acsomega.9b02011
   
   for metadynamics refer to:
   * S. Grimme, J. Chem. Theory Comput., 2019, 155, 2847-2862
     DOI: 10.1021/acs.jctc.9b00143
   
   for SPH calculations refer to:
   * S. Spicher and S. Grimme, J. Chem. Theory Comput., 2021, 17, 1701-1714
     DOI: 10.1021/acs.jctc.0c01306
   
   with help from (in alphabetical order)
   P. Atkinson, C. Bannwarth, F. Bohle, G. Brandenburg, E. Caldeweyher
   M. Checinski, S. Dohm, S. Ehlert, S. Ehrlich, I. Gerasimov, C. Hölzer
   A. Katbashev, J. Koopman, C. Lavigne, S. Lehtola, F. März, M. Müller,
   F. Musil, H. Neugebauer, J. Pisarek, C. Plett, P. Pracht, F. Pultar,
   J. Seibert, P. Shushkov, S. Spicher, M. Stahn, M. Steiner, T. Strunk,
   J. Stückrath, T. Rose, and J. Unsleber
   
 * started run on 2026/04/17 at 12:14:29.261     

           -------------------------------------------------
          |                Calculation Setup                |
           -------------------------------------------------

          program call               : /usr/bin/xtb double_ring_6_6_d1.90_m3_XTB.xyz --grad -c 0 -u 2 -P 1 --namespace double_ring_6_6_d1.90_m3 --input double_ring_6_6_d1.90_m3_XTB.input.tmp --acc 0.200000
          calculation namespace      : double_ring_6_6_d1.90_m3
          coordinate file            : double_ring_6_6_d1.90_m3_XTB.xyz
          omp threads                :                     1

   ID    Z sym.   atoms
    1    5 B      1-12

molecular fragmentation (1/2 indicates fragments):
111111222222
# atoms in fragment 1/2:     6     6
 fragment masses (1/2) :       64.87       64.87
CMA distance (Bohr)    :   4.668
constraining FC (au)   :  0.0500

           -------------------------------------------------
          |                 G F N 2 - x T B                 |
           -------------------------------------------------

        Reference                      10.1021/acs.jctc.8b01176
      * Hamiltonian:
        H0-scaling (s, p, d)           1.850000    2.230000    2.230000
        zeta-weighting                 0.500000
      * Dispersion:
        s8                             2.700000
        a1                             0.520000
        a2                             5.000000
        s9                             5.000000
      * Repulsion:
        kExp                           1.500000    1.000000
        rExp                           1.000000
      * Coulomb:
        alpha                          2.000000
        third order                    shell-resolved
        anisotropic                    true
        a3                             3.000000
        a5                             4.000000
        cn-shift                       1.200000
        cn-exp                         4.000000
        max-rad                        5.000000


          ...................................................
          :                      SETUP                      :
          :.................................................:
          :  # basis functions                  48          :
          :  # atomic orbitals                  48          :
          :  # shells                           24          :
          :  # electrons                        36          :
          :  max. iterations                   250          :
          :  Hamiltonian                  GFN2-xTB          :
          :  restarted?                      false          :
          :  GBSA solvation                  false          :
          :  PC potential                    false          :
          :  electronic temp.          300.0000000     K    :
          :  accuracy                    0.2000000          :
          :  -> integral cutoff          0.3198970E+02      :
          :  -> integral neglect         0.2000000E-08      :
          :  -> SCF convergence          0.2000000E-06 Eh   :
          :  -> wf. convergence          0.2000000E-04 e    :
          :  Broyden damping             0.4000000          :
          ...................................................

 iter      E             dE          RMSdq      gap      omega  full diag
   1    -13.8006960 -0.138007E+02  0.242E+01    0.58       0.0  T
   2    -13.7623265  0.383696E-01  0.147E+01    0.58       1.0  T
   3     -4.4396733  0.932265E+01  0.172E+01    0.00       1.0  T
   4    -13.8035536 -0.936388E+01  0.114E+00    0.56       1.0  T
   5    -13.8123963 -0.884272E-02  0.842E-01    0.56       1.0  T
   6    -13.8156533 -0.325699E-02  0.343E-01    0.56       1.0  T
   7    -13.8159277 -0.274403E-03  0.745E-02    0.56       1.0  T
   8    -13.8159273  0.451034E-06  0.271E-02    0.56       1.1  T
   9    -13.8159302 -0.288061E-05  0.172E-02    0.56       1.7  T
  10    -13.8159323 -0.214968E-05  0.175E-03    0.56      16.5  T
  11    -13.8159323 -0.373537E-08  0.113E-03    0.56      25.4  T
  12    -13.8159323 -0.258066E-08  0.346E-04    0.56      83.4  T
  13    -13.8159323 -0.129971E-08  0.578E-05    0.56     499.4  T
  14    -13.8159323 -0.473221E-11  0.513E-05    0.56     562.3  T

   *** convergence criteria satisfied after 14 iterations ***

         #    Occupation            Energy/Eh            Energy/eV
      -------------------------------------------------------------
         1        2.0000           -0.3878330             -10.5535
       ...           ...                  ...                  ...
        13        2.0000           -0.2897290              -7.8839
        14        2.0000           -0.2592932              -7.0557
        15        2.0000           -0.2507508              -6.8233
        16        2.0000           -0.2507507              -6.8233
        17        2.0000           -0.2374193              -6.4605
        18        1.0000           -0.2168828              -5.9017
        19        1.0000           -0.2168827              -5.9017 (HOMO)
        20        0.0000           -0.1962939              -5.3414 (LUMO)
        21        0.0000           -0.1962939              -5.3414
        22                         -0.1873546              -5.0982
        23                         -0.1755239              -4.7762
        24                         -0.1666557              -4.5349
       ...                                ...                  ...
        48                          0.4733554              12.8807
      -------------------------------------------------------------
                  HL-Gap            0.0205888 Eh            0.5602 eV
             Fermi-level           -0.2170343 Eh           -5.9058 eV

 transition dipole moment (au) for excitation:          18          19
     X       Y       Z   
   0.0000  -0.0000  -0.0000  total (au/Debye):    0.000   0.000
 dE (eV)             :    0.000
 oscillator strength :  0.41724E-18

 SCC (total)                   0 d,  0 h,  0 min,  0.024 sec
 SCC setup                      ...        0 min,  0.000 sec (  0.564%)
 Dispersion                     ...        0 min,  0.000 sec (  0.385%)
 classical contributions        ...        0 min,  0.000 sec (  0.131%)
 integral evaluation            ...        0 min,  0.002 sec (  9.681%)
 iterations                     ...        0 min,  0.013 sec ( 54.151%)
 molecular gradient             ...        0 min,  0.006 sec ( 22.873%)
 printout                       ...        0 min,  0.003 sec ( 12.132%)

         :::::::::::::::::::::::::::::::::::::::::::::::::::::
         ::                     SUMMARY                     ::
         :::::::::::::::::::::::::::::::::::::::::::::::::::::
         :: total energy             -13.783728605480 Eh    ::
         :: gradient norm              0.275296095511 Eh/a0 ::
         :: HOMO-LUMO gap              0.560249285419 eV    ::
         ::.................................................::
         :: SCC energy               -13.815932324198 Eh    ::
         :: -> isotropic ES            0.077675641905 Eh    ::
         :: -> anisotropic ES          0.016515523799 Eh    ::
         :: -> anisotropic XC         -0.044325381329 Eh    ::
         :: -> dispersion             -0.020282102615 Eh    ::
         :: repulsion energy           0.032163862604 Eh    ::
         :: add. restraining           0.000000000000 Eh    ::
         :: total charge              -0.000000000045 e     ::
         :::::::::::::::::::::::::::::::::::::::::::::::::::::


Property printout bound to 'properties.out'

           -------------------------------------------------
          | TOTAL ENERGY              -13.783728605480 Eh   |
          | GRADIENT NORM               0.275296095511 Eh/α |
          | HOMO-LUMO GAP               0.560249285419 eV   |
           -------------------------------------------------

------------------------------------------------------------------------
 * finished run on 2026/04/17 at 12:14:29.297     
------------------------------------------------------------------------
 total:
 * wall-time:     0 d,  0 h,  0 min,  0.036 sec
 *  cpu-time:     0 d,  0 h,  0 min,  0.036 sec
 * ratio c/w:     0.999 speedup
 SCF:
 * wall-time:     0 d,  0 h,  0 min,  0.025 sec
 *  cpu-time:     0 d,  0 h,  0 min,  0.025 sec
 * ratio c/w:     1.000 speedup


-------------------------   --------------------
FINAL SINGLE POINT ENERGY       -13.783728605480
-------------------------   --------------------


-------------
DIPOLE MOMENT
-------------
                                X             Y             Z
Total Dipole Moment    :     -0.00000       0.00000       0.08900
                        -----------------------------------------
Magnitude (a.u.)       :      0.08900
Magnitude (Debye)      :      0.22622


------------------
CARTESIAN GRADIENT
------------------

   1   B   :    0.082964781    0.000000003   -0.021375940
   2   B   :    0.041482385    0.071849593   -0.021375936
   3   B   :   -0.041482405    0.071849565   -0.021375939
   4   B   :   -0.082964734    0.000000003   -0.021375945
   5   B   :   -0.041482411   -0.071849569   -0.021375938
   6   B   :    0.041482390   -0.071849597   -0.021375936
   7   B   :    0.060214051    0.034764617    0.021375941
   8   B   :   -0.000000002    0.069529205    0.021375932
   9   B   :   -0.060214052    0.034764615    0.021375945
  10   B   :   -0.060214051   -0.034764615    0.021375945
  11   B   :   -0.000000002   -0.069529205    0.021375931
  12   B   :    0.060214050   -0.034764617    0.021375941

Difference to translation invariance:
           :   -0.0000000000   -0.0000000000    0.0000000000

Difference to rotation invariance:
           :   -0.0000000054   -0.0000000328    0.0000000000

Norm of the Cartesian gradient     ...    0.2752960955
RMS gradient                       ...    0.0458826826
MAX gradient                       ...    0.0829647814
------------------------------------------------------------------------------
                         ORCA GEOMETRY RELAXATION STEP
------------------------------------------------------------------------------

Reading the OPT-File                    .... done
Getting information on internals        .... done
Copying old internal coords+grads       .... done
Making the new internal coordinates     .... (2022 redundants) done
Validating the new internal coordinates .... (2022 redundants) done
Calculating the B-matrix                .... done
Calculating the G,G- and P matrices     .... done
Transforming gradient to internals      .... done
Projecting the internal gradient        .... done
Number of atoms                         ....  12
Number of internal coordinates          .... 240
Current Energy                          ....   -13.783728605 Eh
Current gradient norm                   ....     0.275296096 Eh/bohr
Maximum allowed component of the step   ....  0.300
Current trust radius                    ....  0.300
Evaluating the initial hessian          ....  (Almloef) done
Projecting the Hessian                  .... done
Forming the augmented Hessian           .... done
Diagonalizing the augmented Hessian     .... done
Last element of RFO vector              ....  0.798536893
Lowest eigenvalues of augmented Hessian:
 -0.185711925  0.020796860  0.026329236  0.028455361  0.029133445
Length of the computed step             ....  0.753810970
Warning: the length of the step is outside the trust region - taking restricted step instead
The input lambda is                     ....     0.014056
   iter:   5  x=    0.007336  g=40579.286611 f(x)=   106.317322
   iter:  10  x=   -0.082185  g=   56.153529 f(x)=     2.532338
   iter:  15  x=   -0.664375  g=    0.308123 f(x)=     0.023557
   iter:  20  x=   -0.678873  g=    0.217011 f(x)=     0.000000
The output lambda is                    ....    -0.678873 (20 iterations)
The final length of the internal step   ....  0.300000000
Converting the step to Cartesian space:
 Initial RMS(Int)=    0.0193649167
Transforming coordinates:
 Iter   0:  RMS(Cart)=    0.0465650772 RMS(Int)=    0.0193614762
done
Storing new coordinates                 .... done

                                .--------------------.
          ----------------------|Geometry convergence|-------------------------
          Item                value                   Tolerance       Converged
          ---------------------------------------------------------------------
          RMS gradient        0.0161597410            0.0000300000      NO
          MAX gradient        0.0717285344            0.0001000000      NO
          RMS step            0.0193649167            0.0006000000      NO
          MAX step            0.0879507831            0.0010000000      NO
          -------------------------------------------------------------------------
          ........................................................
          Max(Bonds)      0.0465      Max(Angles)    0.88
          Max(Dihed)        0.48      Max(Improp)    0.00
          ---------------------------------------------------------------------

The optimization has not yet converged - more geometry cycles are needed


    ---------------------------------------------------------------------------
                         Redundant Internal Coordinates
                            (Angstroem and degrees)

        Definition                    Value    dE/dq     Step     New-Value
    ----------------------------------------------------------------------------
     1. B(B   1,B   0)                1.9000  0.071372 -0.0464    1.8536   
     2. B(B   2,B   1)                1.9000  0.070513 -0.0459    1.8541   
     3. B(B   3,B   2)                1.9000  0.071729 -0.0465    1.8535   
     4. B(B   4,B   3)                1.9000  0.071233 -0.0463    1.8537   
     5. B(B   5,B   0)                1.9000  0.070926 -0.0461    1.8539   
     6. B(B   5,B   4)                1.9000  0.071576 -0.0464    1.8536   
     7. B(B   6,B   1)                2.6484  0.015753 -0.0118    2.6366   
     8. B(B   6,B   0)                2.6484  0.015248 -0.0114    2.6369   
     9. B(B   7,B   6)                1.7480  0.065020 -0.0390    1.7090   
    10. B(B   7,B   2)                2.6484  0.015968 -0.0120    2.6364   
    11. B(B   7,B   1)                2.6484  0.016197 -0.0122    2.6362   
    12. B(B   8,B   2)                2.6484  0.015935 -0.0119    2.6365   
    13. B(B   8,B   3)                2.6484  0.015971 -0.0119    2.6365   
    14. B(B   8,B   7)                1.7480  0.063888 -0.0385    1.7095   
    15. B(B   9,B   4)                2.6484  0.015975 -0.0120    2.6363   
    16. B(B   9,B   3)                2.6484  0.015869 -0.0119    2.6365   
    17. B(B   9,B   8)                1.7480  0.063993 -0.0385    1.7095   
    18. B(B  10,B   5)                2.6484  0.016219 -0.0121    2.6362   
    19. B(B  10,B   9)                1.7480  0.064028 -0.0385    1.7095   
    20. B(B  10,B   4)                2.6484  0.015910 -0.0120    2.6364   
    21. B(B  11,B  10)                1.7480  0.064218 -0.0387    1.7093   
    22. B(B  11,B   0)                2.6484  0.016277 -0.0122    2.6362   
    23. B(B  11,B   6)                1.7480  0.064278 -0.0387    1.7093   
    24. B(B  11,B   5)                2.6484  0.015784 -0.0119    2.6365   
    25. A(B   1,B   0,B   6)           68.98 -0.006317    0.43     69.41   
    26. A(B   1,B   0,B   5)          120.00  0.000332   -0.02    119.98   
    27. A(B   5,B   0,B  11)           68.98 -0.006488    0.44     69.42   
    28. A(B   5,B   0,B   6)          102.29  0.003411   -0.17    102.12   
    29. A(B   6,B   0,B  11)           38.54  0.011404   -0.71     37.83   
    30. A(B   1,B   0,B  11)          102.29  0.003550   -0.18    102.11   
    31. A(B   0,B   1,B   6)           68.98 -0.006580    0.45     69.43   
    32. A(B   0,B   1,B   2)          120.00 -0.000382    0.02    120.02   
    33. A(B   0,B   1,B   7)          102.29  0.003264   -0.16    102.13   
    34. A(B   6,B   1,B   7)           38.54  0.011531   -0.71     37.83   
    35. A(B   2,B   1,B   7)           68.98 -0.006372    0.44     69.41   
    36. A(B   2,B   1,B   6)          102.29  0.003529   -0.18    102.11   
    37. A(B   1,B   2,B   7)           68.98 -0.006252    0.43     69.41   
    38. A(B   3,B   2,B   7)          102.29  0.003263   -0.16    102.13   
    39. A(B   3,B   2,B   8)           68.98 -0.006443    0.44     69.42   
    40. A(B   1,B   2,B   8)          102.29  0.003616   -0.19    102.10   
    41. A(B   1,B   2,B   3)          120.00  0.000317   -0.02    119.98   
    42. A(B   7,B   2,B   8)           38.54  0.011295   -0.70     37.84   
    43. A(B   2,B   3,B   9)          102.29  0.003184   -0.16    102.13   
    44. A(B   4,B   3,B   8)          102.29  0.003495   -0.18    102.11   
    45. A(B   2,B   3,B   8)           68.98 -0.006462    0.44     69.42   
    46. A(B   8,B   3,B   9)           38.54  0.011321   -0.70     37.84   
    47. A(B   2,B   3,B   4)          120.00 -0.000012    0.00    120.00   
    48. A(B   4,B   3,B   9)           68.98 -0.006374    0.43     69.41   
    49. A(B   5,B   4,B  10)           68.98 -0.006347    0.43     69.41   
    50. A(B   3,B   4,B  10)          102.29  0.003360   -0.17    102.12   
    51. A(B   5,B   4,B   9)          102.29  0.003287   -0.17    102.13   
    52. A(B   3,B   4,B   5)          120.00 -0.000293    0.02    120.02   
    53. A(B   3,B   4,B   9)           68.98 -0.006429    0.44     69.42   
    54. A(B   9,B   4,B  10)           38.54  0.011326   -0.70     37.84   
    55. A(B   4,B   5,B  11)          102.29  0.003421   -0.18    102.12   
    56. A(B   0,B   5,B  11)           68.98 -0.006232    0.43     69.40   
    57. A(B  10,B   5,B  11)           38.54  0.011358   -0.70     37.83   
    58. A(B   0,B   5,B   4)          120.00  0.000038   -0.00    120.00   
    59. A(B   4,B   5,B  10)           68.98 -0.006507    0.44     69.42   
    60. A(B   0,B   5,B  10)          102.29  0.003426   -0.18    102.12   
    61. A(B   1,B   6,B   7)           70.73 -0.005638    0.34     71.08   
    62. A(B   7,B   6,B  11)          120.00 -0.000225    0.01    120.01   
    63. A(B   0,B   6,B   1)           42.04  0.012897   -0.88     41.16   
    64. A(B   0,B   6,B  11)           70.73 -0.005408    0.33     71.06   
    65. A(B   0,B   6,B   7)          106.94  0.005217   -0.40    106.54   
    66. A(B   1,B   6,B  11)          106.94  0.005596   -0.42    106.52   
    67. A(B   6,B   7,B   8)          120.00  0.000340   -0.02    119.98   
    68. A(B   1,B   7,B   2)           42.04  0.012624   -0.86     41.18   
    69. A(B   1,B   7,B   8)          106.94  0.005242   -0.39    106.55   
    70. A(B   1,B   7,B   6)           70.73 -0.005892    0.37     71.10   
    71. A(B   2,B   7,B   8)           70.73 -0.005657    0.35     71.08   
    72. A(B   2,B   7,B   6)          106.94  0.004825   -0.36    106.57   
    73. A(B   2,B   8,B   3)           42.04  0.012904   -0.88     41.16   
    74. A(B   3,B   8,B   9)           70.73 -0.005690    0.35     71.08   
    75. A(B   3,B   8,B   7)          106.94  0.005305   -0.40    106.54   
    76. A(B   2,B   8,B   9)          106.94  0.005163   -0.39    106.55   
    77. A(B   2,B   8,B   7)           70.73 -0.005638    0.35     71.08   
    78. A(B   7,B   8,B   9)          120.00 -0.000435    0.03    120.03   
    79. A(B   3,B   9,B   4)           42.04  0.012803   -0.87     41.17   
    80. A(B   3,B   9,B  10)          106.94  0.005242   -0.39    106.54   
    81. A(B   3,B   9,B   8)           70.73 -0.005631    0.35     71.08   
    82. A(B   4,B   9,B  10)           70.73 -0.005681    0.35     71.08   
    83. A(B   4,B   9,B   8)          106.94  0.005385   -0.40    106.54   
    84. A(B   8,B   9,B  10)          120.00  0.000407   -0.02    119.98   
    85. A(B   4,B  10,B   9)           70.73 -0.005644    0.35     71.08   
    86. A(B   4,B  10,B   5)           42.04  0.012854   -0.88     41.17   
    87. A(B   5,B  10,B  11)           70.73 -0.005803    0.36     71.09   
    88. A(B   5,B  10,B   9)          106.94  0.005154   -0.39    106.55   
    89. A(B   9,B  10,B  11)          120.00  0.000047   -0.00    120.00   
    90. A(B   4,B  10,B  11)          106.94  0.005292   -0.39    106.54   
    91. A(B   5,B  11,B  10)           70.73 -0.005554    0.34     71.07   
    92. A(B   5,B  11,B   6)          106.94  0.004924   -0.37    106.57   
    93. A(B   6,B  11,B  10)          120.00 -0.000134    0.01    120.01   
    94. A(B   0,B  11,B   5)           42.04  0.012720   -0.87     41.17   
    95. A(B   0,B  11,B  10)          106.94  0.005127   -0.39    106.55   
    96. A(B   0,B  11,B   6)           70.73 -0.005996    0.38     71.11   
    97. D(B   2,B   1,B   0,B   6)    -92.38 -0.000710   -0.03    -92.41   
    98. D(B   2,B   1,B   0,B   5)      0.00 -0.000253    0.01      0.01   
    99. D(B   6,B   1,B   0,B  11)     19.72  0.006034   -0.37     19.35   
   100. D(B   2,B   1,B   0,B  11)    -72.65  0.005324   -0.40    -73.06   
   101. D(B   7,B   1,B   0,B   5)     72.65 -0.005883    0.43     73.08   
   102. D(B   6,B   1,B   0,B   5)     92.38  0.000457    0.04     92.42   
   103. D(B   8,B   2,B   1,B   7)    -19.72 -0.005810    0.36    -19.36   
   104. D(B   3,B   2,B   1,B   6)    -72.65  0.005914   -0.43    -73.09   
   105. D(B   3,B   2,B   1,B   0)      0.00  0.000186   -0.01     -0.01   
   106. D(B   8,B   2,B   1,B   0)     72.65 -0.005304    0.40     73.06   
   107. D(B   8,B   2,B   1,B   6)      0.00  0.000424   -0.03     -0.03   
   108. D(B   3,B   2,B   1,B   7)    -92.38 -0.000320   -0.05    -92.43   
   109. D(B   4,B   3,B   2,B   7)    -72.65  0.005498   -0.41    -73.06   
   110. D(B   8,B   3,B   2,B   1)     92.38  0.000640    0.03     92.40   
   111. D(B   4,B   3,B   2,B   8)    -92.38 -0.000601   -0.03    -92.41   
   112. D(B   4,B   3,B   2,B   1)      0.00  0.000039   -0.00     -0.00   
   113. D(B   9,B   3,B   2,B   1)     72.65 -0.005619    0.41     73.07   
   114. D(B   8,B   3,B   2,B   7)     19.72  0.006099   -0.38     19.34   
   115. D(B   5,B   4,B   3,B   9)    -92.38 -0.000470   -0.04    -92.42   
   116. D(B   9,B   4,B   3,B   2)     92.38  0.000274    0.05     92.43   
   117. D(B   5,B   4,B   3,B   2)      0.00 -0.000196    0.01      0.01   
   118. D(B   5,B   4,B   3,B   8)    -72.65  0.005396   -0.40    -73.06   
   119. D(B   9,B   4,B   3,B   8)     19.72  0.005866   -0.36     19.36   
   120. D(B  10,B   4,B   3,B   2)     72.65 -0.005742    0.42     73.07   
   121. D(B   4,B   5,B   0,B   6)     72.65 -0.005359    0.40     73.05   
   122. D(B  11,B   5,B   0,B   6)    -19.72 -0.005982    0.37    -19.35   
   123. D(B  10,B   5,B   0,B   1)    -72.65  0.005774   -0.42    -73.08   
   124. D(B   4,B   5,B   0,B  11)     92.38  0.000623    0.03     92.40   
   125. D(B   4,B   5,B   0,B   1)      0.00  0.000095   -0.01     -0.01   
   126. D(B   0,B   5,B   4,B   3)      0.00  0.000130   -0.00     -0.00   
   127. D(B  11,B   5,B   0,B   1)    -92.38 -0.000528   -0.03    -92.41   
   128. D(B  11,B   5,B   4,B   9)      0.00  0.000445   -0.03     -0.03   
   129. D(B   0,B   5,B   4,B  10)    -92.38 -0.000475   -0.04    -92.41   
   130. D(B  11,B   5,B   4,B   3)     72.65 -0.005234    0.39     73.05   
   131. D(B  11,B   5,B   4,B  10)    -19.72 -0.005839    0.36    -19.36   
   132. D(B   0,B   5,B   4,B   9)    -72.65  0.005809   -0.42    -73.08   
   133. D(B   0,B   6,B   1,B   2)    117.68 -0.001830    0.10    117.78   
   134. D(B  11,B   6,B   1,B   2)     86.20 -0.002783    0.18     86.37   
   135. D(B  11,B   6,B   1,B   0)    -31.48 -0.000953    0.07    -31.41   
   136. D(B   7,B   6,B   1,B   2)    -30.37 -0.000272    0.00    -30.37   
   137. D(B   7,B   6,B   1,B   0)   -148.05  0.001558   -0.10   -148.15   
   138. D(B   1,B   6,B   0,B   5)   -117.68  0.001015   -0.05   -117.73   
   139. D(B   7,B   6,B   0,B  11)   -116.57  0.002382   -0.17   -116.73   
   140. D(B   7,B   6,B   0,B   5)    -86.20  0.002310   -0.15    -86.35   
   141. D(B   7,B   6,B   0,B   1)     31.48  0.001295   -0.10     31.38   
   142. D(B  11,B   6,B   1,B   7)    116.57 -0.002511    0.17    116.74   
   143. D(B  11,B   6,B   0,B   1)    148.05 -0.001087    0.07    148.12   
   144. D(B  11,B   6,B   0,B   5)     30.37 -0.000072    0.02     30.39   
   145. D(B   8,B   7,B   6,B   1)     98.89  0.002997   -0.26     98.63   
   146. D(B   8,B   7,B   6,B  11)      0.00 -0.000703    0.06      0.06   
   147. D(B   1,B   7,B   2,B   3)    117.68 -0.000982    0.05    117.73   
   148. D(B   6,B   7,B   2,B   1)    -31.48 -0.000951    0.07    -31.41   
   149. D(B   6,B   7,B   2,B   3)     86.20 -0.001933    0.12     86.32   
   150. D(B   8,B   7,B   2,B   1)   -148.05  0.000772   -0.05   -148.10   
   151. D(B   2,B   7,B   1,B   0)   -117.68  0.001736   -0.10   -117.77   
   152. D(B   8,B   7,B   2,B   3)    -30.37 -0.000210    0.00    -30.37   
   153. D(B   8,B   7,B   1,B   6)   -116.57  0.001862   -0.13   -116.70   
   154. D(B   8,B   7,B   1,B   2)     31.48  0.000524   -0.04     31.44   
   155. D(B   6,B   7,B   2,B   8)    116.57 -0.001723    0.12    116.69   
   156. D(B   6,B   7,B   1,B   0)     30.37  0.000399   -0.01     30.36   
   157. D(B   6,B   7,B   1,B   2)    148.05 -0.001337    0.09    148.13   
   158. D(B   8,B   7,B   6,B   0)     77.14 -0.004337    0.24     77.38   
   159. D(B   8,B   7,B   1,B   0)    -86.20  0.002260   -0.14    -86.34   
   160. D(B   2,B   7,B   6,B   0)      0.00 -0.000309    0.02      0.02   
   161. D(B   2,B   7,B   6,B   1)     21.74  0.007025   -0.48     21.26   
   162. D(B   2,B   7,B   6,B  11)    -77.14  0.003325   -0.16    -77.30   
   163. D(B   3,B   8,B   7,B   6)    -77.14  0.004570   -0.26    -77.40   
   164. D(B   2,B   8,B   7,B   1)    -21.74 -0.006714    0.46    -21.29   
   165. D(B   2,B   8,B   7,B   6)    -98.89 -0.002629    0.24    -98.65   
   166. D(B   9,B   8,B   7,B   1)     77.14 -0.003471    0.18     77.32   
   167. D(B   9,B   8,B   7,B   2)     98.89  0.003243   -0.28     98.60   
   168. D(B   2,B   8,B   3,B   4)    117.68 -0.001417    0.08    117.76   
   169. D(B   9,B   8,B   3,B   4)    -30.37  0.000176   -0.02    -30.39   
   170. D(B   9,B   8,B   3,B   2)   -148.05  0.001593   -0.10   -148.15   
   171. D(B   7,B   8,B   3,B   9)    116.57 -0.002675    0.18    116.75   
   172. D(B   7,B   8,B   3,B   4)     86.20 -0.002499    0.16     86.36   
   173. D(B   7,B   8,B   3,B   2)    -31.48 -0.001082    0.08    -31.40   
   174. D(B   9,B   8,B   7,B   6)      0.00  0.000614   -0.05     -0.05   
   175. D(B   3,B   8,B   2,B   1)   -117.68  0.001103   -0.06   -117.74   
   176. D(B   9,B   8,B   2,B   1)    -86.20  0.002411   -0.15    -86.35   
   177. D(B   7,B   8,B   2,B   3)    148.05 -0.001324    0.09    148.13   
   178. D(B   7,B   8,B   2,B   1)     30.37 -0.000221    0.03     30.40   
   179. D(B   9,B   8,B   2,B   7)   -116.57  0.002632   -0.18   -116.75   
   180. D(B   9,B   8,B   2,B   3)     31.48  0.001308   -0.09     31.39   
   181. D(B   4,B   9,B   8,B   3)     21.74  0.006871   -0.47     21.27   
   182. D(B   4,B   9,B   8,B   2)      0.00 -0.000483    0.03      0.03   
   183. D(B   4,B   9,B   8,B   7)    -77.14  0.003486   -0.18    -77.32   
   184. D(B  10,B   9,B   8,B   3)     98.89  0.003119   -0.27     98.61   
   185. D(B  10,B   9,B   8,B   2)     77.14 -0.004234    0.23     77.37   
   186. D(B  10,B   9,B   8,B   7)      0.00 -0.000265    0.02      0.02   
   187. D(B   3,B   9,B   4,B   5)    117.68 -0.001651    0.09    117.77   
   188. D(B  10,B   9,B   4,B   5)    -30.37 -0.000510    0.02    -30.35   
   189. D(B  10,B   9,B   4,B   3)   -148.05  0.001141   -0.07   -148.12   
   190. D(B   8,B   9,B   4,B  10)    116.57 -0.001790    0.13    116.69   
   191. D(B   8,B   9,B   4,B   5)     86.20 -0.002300    0.15     86.34   
   192. D(B   8,B   9,B   4,B   3)    -31.48 -0.000649    0.06    -31.43   
   193. D(B   4,B   9,B   3,B   2)   -117.68  0.001314   -0.07   -117.75   
   194. D(B  10,B   9,B   3,B   8)   -116.57  0.001748   -0.13   -116.69   
   195. D(B  10,B   9,B   3,B   4)     31.48  0.000882   -0.07     31.41   
   196. D(B  10,B   9,B   3,B   2)    -86.20  0.002195   -0.14    -86.34   
   197. D(B   8,B   9,B   3,B   4)    148.05 -0.000866    0.06    148.10   
   198. D(B   8,B   9,B   3,B   2)     30.37  0.000448   -0.01     30.36   
   199. D(B   5,B  10,B   9,B   8)    -77.14  0.004084   -0.22    -77.36   
   200. D(B   4,B  10,B   9,B   8)    -98.89 -0.003261    0.28    -98.61   
   201. D(B  11,B  10,B   9,B   3)     77.14 -0.003763    0.20     77.34   
   202. D(B  11,B  10,B   9,B   4)     98.89  0.003266   -0.28     98.61   
   203. D(B  11,B  10,B   9,B   8)      0.00  0.000005   -0.00     -0.00   
   204. D(B   4,B  10,B   5,B   0)    117.68 -0.001344    0.07    117.75   
   205. D(B  11,B  10,B   5,B   4)   -148.05  0.000800   -0.05   -148.10   
   206. D(B  11,B  10,B   5,B   0)    -30.37 -0.000544    0.02    -30.35   
   207. D(B   9,B  10,B   5,B  11)    116.57 -0.002140    0.15    116.71   
   208. D(B   9,B  10,B   5,B   4)    -31.48 -0.001340    0.10    -31.38   
   209. D(B   9,B  10,B   5,B   0)     86.20 -0.002684    0.17     86.37   
   210. D(B   5,B  10,B   4,B   3)   -117.68  0.001671   -0.09   -117.77   
   211. D(B  11,B  10,B   4,B   9)   -116.57  0.002147   -0.15   -116.71   
   212. D(B  11,B  10,B   4,B   5)     31.48  0.000530   -0.05     31.43   
   213. D(B  11,B  10,B   4,B   3)    -86.20  0.002201   -0.14    -86.33   
   214. D(B   4,B  10,B   9,B   3)    -21.74 -0.007029    0.48    -21.26   
   215. D(B   9,B  10,B   4,B   5)    148.05 -0.001617    0.10    148.15   
   216. D(B   9,B  10,B   4,B   3)     30.37  0.000054    0.01     30.38   
   217. D(B   5,B  11,B   0,B   1)    117.68 -0.001067    0.06    117.73   
   218. D(B  10,B  11,B   0,B   6)    116.57 -0.002360    0.16    116.73   
   219. D(B  10,B  11,B   0,B   5)    -31.48 -0.001345    0.10    -31.38   
   220. D(B  10,B  11,B   0,B   1)     86.20 -0.002412    0.15     86.35   
   221. D(B   6,B  11,B   0,B   5)   -148.05  0.001015   -0.07   -148.11   
   222. D(B   6,B  11,B   5,B   0)     31.48  0.000631   -0.05     31.43   
   223. D(B   6,B  11,B   0,B   1)    -30.37 -0.000052   -0.01    -30.38   
   224. D(B   0,B  11,B  10,B   9)    -77.14  0.004259   -0.23    -77.37   
   225. D(B   5,B  11,B  10,B   9)    -98.89 -0.003018    0.27    -98.62   
   226. D(B   6,B  11,B  10,B   5)     98.89  0.002925   -0.26     98.63   
   227. D(B   6,B  11,B  10,B   4)     77.14 -0.003915    0.21     77.35   
   228. D(B   5,B  11,B   6,B   0)    -21.74 -0.006874    0.47    -21.27   
   229. D(B   5,B  11,B   6,B   1)      0.00  0.000206   -0.01     -0.01   
   230. D(B   5,B  11,B   6,B   7)     77.14 -0.003500    0.17     77.31   
   231. D(B  10,B  11,B   6,B   0)    -98.89 -0.002932    0.26    -98.63   
   232. D(B  10,B  11,B   6,B   1)    -77.14  0.004148   -0.23    -77.37   
   233. D(B  10,B  11,B   6,B   7)      0.00  0.000442   -0.04     -0.04   
   234. D(B   6,B  11,B  10,B   9)      0.00 -0.000093    0.01      0.01   
   235. D(B   0,B  11,B   5,B   4)   -117.68  0.001330   -0.07   -117.75   
   236. D(B  10,B  11,B   5,B   4)     30.37 -0.000277    0.03     30.40   
   237. D(B  10,B  11,B   5,B   0)    148.05 -0.001607    0.10    148.15   
   238. D(B   5,B  11,B  10,B   4)    -21.74 -0.006840    0.47    -21.28   
   239. D(B   6,B  11,B   5,B  10)   -116.57  0.002238   -0.15   -116.72   
   240. D(B   6,B  11,B   5,B   4)    -86.20  0.001962   -0.12    -86.32   
    ----------------------------------------------------------------------------

Geometry step timings:
Preparation and reading OPT file:      0.000 s ( 0.360 %)
Internal coordinates            :      0.000 s ( 0.275 %)
B/P matrices and projection     :      0.004 s (17.461 %)
Hessian update/contruction      :      0.004 s (17.712 %)
Making the step                 :      0.011 s (53.382 %)
Converting the step to Cartesian:      0.001 s ( 2.441 %)
Storing new data                :      0.000 s ( 0.303 %)
Checking convergence            :      0.000 s ( 0.469 %)
Final printing                  :      0.002 s ( 7.593 %)
Total time                      :      0.021 s

Time for energy+gradient        :      0.050 s
Time for complete geometry iter :      0.072 s

         *************************************************************
         *                GEOMETRY OPTIMIZATION CYCLE   2            *
         *************************************************************
---------------------------------
CARTESIAN COORDINATES (ANGSTROEM)
---------------------------------
  B     1.854031   -0.000161   -1.232907
  B     0.926922    1.604977   -1.233007
  B    -0.927237    1.605428   -1.232930
  B    -1.853814    0.000186   -1.232913
  B    -0.926805   -1.605132   -1.233044
  B     0.926794   -1.605543   -1.233009
  B     1.480075    0.854887    1.233350
  B     0.000209    1.709612    1.232715
  B    -1.480047    0.854514    1.233123
  B    -1.480477   -0.854945    1.232920
  B     0.000114   -1.709420    1.232810
  B     1.480234   -0.854403    1.232890

----------------------------
CARTESIAN COORDINATES (A.U.)
----------------------------
  NO LB    ZA    FRAG    MASS        X           Y           Z
   0 B   5.0000    0    10.810    3.503610   -0.000304   -2.329856
   1 B   5.0000    0    10.810    1.751629    3.032967   -2.330046
   2 B   5.0000    0    10.810   -1.752223    3.033820   -2.329899
   3 B   5.0000    0    10.810   -3.503201    0.000352   -2.329868
   4 B   5.0000    0    10.810   -1.751407   -3.033259   -2.330115
   5 B   5.0000    0    10.810    1.751386   -3.034037   -2.330049
   6 B   5.0000    0    10.810    2.796937    1.615501    2.330694
   7 B   5.0000    0    10.810    0.000395    3.230698    2.329494
   8 B   5.0000    0    10.810   -2.796883    1.614797    2.330265
   9 B   5.0000    0    10.810   -2.797696   -1.615611    2.329882
  10 B   5.0000    0    10.810    0.000216   -3.230336    2.329674
  11 B   5.0000    0    10.810    2.797236   -1.614589    2.329825

      -----------------------------------------------------------      
     |                   =====================                   |     
     |                           x T B                           |     
     |                   =====================                   |     
     |                         S. Grimme                         |     
     |          Mulliken Center for Theoretical Chemistry        |     
     |                    University of Bonn                     |     
      -----------------------------------------------------------      

   * xtb version 6.6.1 (unknown) compiled by 'builduser@buildhost' on 2023-08-07

   xtb is free software: you can redistribute it and/or modify it under
   the terms of the GNU Lesser General Public License as published by
   the Free Software Foundation, either version 3 of the License, or
   (at your option) any later version.
   
   xtb is distributed in the hope that it will be useful,
   but WITHOUT ANY WARRANTY; without even the implied warranty of
   MERCHANTABILITY or FITNESS FOR A PARTICULAR PURPOSE.  See the
   GNU Lesser General Public License for more details.
   
   Cite this work as:
   * C. Bannwarth, E. Caldeweyher, S. Ehlert, A. Hansen, P. Pracht,
     J. Seibert, S. Spicher, S. Grimme, WIREs Comput. Mol. Sci., 2020, 11,
     e01493. DOI: 10.1002/wcms.1493
   
   for GFN2-xTB:
   * C. Bannwarth, S. Ehlert and S. Grimme., J. Chem. Theory Comput., 2019,
     15, 1652-1671. DOI: 10.1021/acs.jctc.8b01176
   for GFN1-xTB:
   * S. Grimme, C. Bannwarth, P. Shushkov, J. Chem. Theory Comput., 2017,
     13, 1989-2009. DOI: 10.1021/acs.jctc.7b00118
   for GFN0-xTB:
   * P. Pracht, E. Caldeweyher, S. Ehlert, S. Grimme, ChemRxiv, 2019, preprint.
     DOI: 10.26434/chemrxiv.8326202.v1
   for GFN-FF:
   * S. Spicher and S. Grimme, Angew. Chem. Int. Ed., 2020, 59, 15665-15673.
     DOI: 10.1002/anie.202004239
   
   for ALPB and GBSA implicit solvation:
   * S. Ehlert, M. Stahn, S. Spicher, S. Grimme, J. Chem. Theory Comput.,
     2021, 17, 4250-4261. DOI: 10.1021/acs.jctc.1c00471
   
   for DFT-D4:
   * E. Caldeweyher, C. Bannwarth and S. Grimme, J. Chem. Phys., 2017,
     147, 034112. DOI: 10.1063/1.4993215
   * E. Caldeweyher, S. Ehlert, A. Hansen, H. Neugebauer, S. Spicher,
     C. Bannwarth and S. Grimme, J. Chem. Phys., 2019, 150, 154122.
     DOI: 10.1063/1.5090222
   * E. Caldeweyher, J.-M. Mewes, S. Ehlert and S. Grimme, Phys. Chem. Chem. Phys.
     2020, 22, 8499-8512. DOI: 10.1039/D0CP00502A
   
   for sTDA-xTB:
   * S. Grimme and C. Bannwarth, J. Chem. Phys., 2016, 145, 054103.
     DOI: 10.1063/1.4959605
   
   in the mass-spec context:
   * V. Asgeirsson, C. Bauer and S. Grimme, Chem. Sci., 2017, 8, 4879.
     DOI: 10.1039/c7sc00601b
   * J. Koopman and S. Grimme, ACS Omega 2019, 4, 12, 15120-15133.
     DOI: 10.1021/acsomega.9b02011
   
   for metadynamics refer to:
   * S. Grimme, J. Chem. Theory Comput., 2019, 155, 2847-2862
     DOI: 10.1021/acs.jctc.9b00143
   
   for SPH calculations refer to:
   * S. Spicher and S. Grimme, J. Chem. Theory Comput., 2021, 17, 1701-1714
     DOI: 10.1021/acs.jctc.0c01306
   
   with help from (in alphabetical order)
   P. Atkinson, C. Bannwarth, F. Bohle, G. Brandenburg, E. Caldeweyher
   M. Checinski, S. Dohm, S. Ehlert, S. Ehrlich, I. Gerasimov, C. Hölzer
   A. Katbashev, J. Koopman, C. Lavigne, S. Lehtola, F. März, M. Müller,
   F. Musil, H. Neugebauer, J. Pisarek, C. Plett, P. Pracht, F. Pultar,
   J. Seibert, P. Shushkov, S. Spicher, M. Stahn, M. Steiner, T. Strunk,
   J. Stückrath, T. Rose, and J. Unsleber
   
 * started run on 2026/04/17 at 12:14:29.332     

           -------------------------------------------------
          |                Calculation Setup                |
           -------------------------------------------------

          program call               : /usr/bin/xtb double_ring_6_6_d1.90_m3_XTB.xyz --grad -c 0 -u 2 -P 1 --namespace double_ring_6_6_d1.90_m3 --input double_ring_6_6_d1.90_m3_XTB.input.tmp --acc 0.200000
          calculation namespace      : double_ring_6_6_d1.90_m3
          coordinate file            : double_ring_6_6_d1.90_m3_XTB.xyz
          omp threads                :                     1

   ID    Z sym.   atoms
    1    5 B      1-12

molecular fragmentation (1/2 indicates fragments):
111111222222
# atoms in fragment 1/2:     6     6
 fragment masses (1/2) :       64.87       64.87
CMA distance (Bohr)    :   4.660
constraining FC (au)   :  0.0500

           -------------------------------------------------
          |                 G F N 2 - x T B                 |
           -------------------------------------------------

        Reference                      10.1021/acs.jctc.8b01176
      * Hamiltonian:
        H0-scaling (s, p, d)           1.850000    2.230000    2.230000
        zeta-weighting                 0.500000
      * Dispersion:
        s8                             2.700000
        a1                             0.520000
        a2                             5.000000
        s9                             5.000000
      * Repulsion:
        kExp                           1.500000    1.000000
        rExp                           1.000000
      * Coulomb:
        alpha                          2.000000
        third order                    shell-resolved
        anisotropic                    true
        a3                             3.000000
        a5                             4.000000
        cn-shift                       1.200000
        cn-exp                         4.000000
        max-rad                        5.000000

q/qsh data taken from xtbrestart
CAMM data taken from xtbrestart

          ...................................................
          :                      SETUP                      :
          :.................................................:
          :  # basis functions                  48          :
          :  # atomic orbitals                  48          :
          :  # shells                           24          :
          :  # electrons                        36          :
          :  max. iterations                   250          :
          :  Hamiltonian                  GFN2-xTB          :
          :  restarted?                       true          :
          :  GBSA solvation                  false          :
          :  PC potential                    false          :
          :  electronic temp.          300.0000000     K    :
          :  accuracy                    0.2000000          :
          :  -> integral cutoff          0.3198970E+02      :
          :  -> integral neglect         0.2000000E-08      :
          :  -> SCF convergence          0.2000000E-06 Eh   :
          :  -> wf. convergence          0.2000000E-04 e    :
          :  Broyden damping             0.4000000          :
          ...................................................

 iter      E             dE          RMSdq      gap      omega  full diag
   1    -13.9007540 -0.139008E+02  0.388E-01    0.57       0.0  T
   2    -13.8962676  0.448635E-02  0.439E-01    0.56       1.0  T
   3    -13.8829015  0.133661E-01  0.739E-01    0.60       1.0  T
   4    -13.9008394 -0.179379E-01  0.418E-02    0.57       1.0  T
   5    -13.9008064  0.329499E-04  0.545E-02    0.57       1.0  T
   6    -13.9008507 -0.442500E-04  0.223E-02    0.57       1.3  T
   7    -13.9008146  0.360289E-04  0.447E-02    0.57       1.0  T
[...]
   231. D(B  10,B  11,B   6,B   0)    -97.41  0.000021   -0.02    -97.43   
   232. D(B  10,B  11,B   6,B   1)    -70.10  0.000013   -0.00    -70.10   
   233. D(B  10,B  11,B   6,B   7)      0.09  0.000000   -0.01      0.09   
   234. D(B   6,B  11,B  10,B   9)     -0.09 -0.000002    0.01     -0.09   
   235. D(B   0,B  11,B   5,B   4)   -115.01  0.000005   -0.00   -115.01   
   236. D(B  10,B  11,B   5,B   4)     31.57  0.000007    0.01     31.58   
   237. D(B  10,B  11,B   5,B   0)    146.58  0.000001    0.01    146.59   
   238. D(B   5,B  11,B  10,B   4)    -27.33  0.000003   -0.01    -27.34   
   239. D(B   6,B  11,B   5,B  10)   -115.10 -0.000008   -0.00   -115.10   
   240. D(B   6,B  11,B   5,B   4)    -83.53 -0.000001    0.01    -83.52   
    ----------------------------------------------------------------------------

Geometry step timings:
Preparation and reading OPT file:      0.000 s ( 2.544 %)
Internal coordinates            :      0.000 s ( 0.454 %)
B/P matrices and projection     :      0.005 s (30.303 %)
Hessian update/contruction      :      0.004 s (20.987 %)
Making the step                 :      0.006 s (33.164 %)
Converting the step to Cartesian:      0.000 s ( 2.252 %)
Storing new data                :      0.000 s ( 0.538 %)
Checking convergence            :      0.000 s ( 0.705 %)
Final printing                  :      0.002 s ( 9.042 %)
Total time                      :      0.017 s
                 *******************************************************
                 *** FINAL ENERGY EVALUATION AT THE STATIONARY POINT ***
                 ***               (AFTER   18 CYCLES)               ***
                 *******************************************************
---------------------------------
CARTESIAN COORDINATES (ANGSTROEM)
---------------------------------
  B     1.571814    0.000369   -0.799065
  B     0.786876    1.362779   -0.798668
  B    -0.785472    1.361323   -0.799222
  B    -1.572051   -0.000358   -0.799256
  B    -0.786651   -1.362441   -0.799132
  B     0.785628   -1.361525   -0.799418
  B     1.362264    0.787017    0.798966
  B     0.000247    1.572697    0.799016
  B    -1.361282    0.785750    0.799608
  B    -1.361758   -0.786795    0.798722
  B    -0.000292   -1.573294    0.798641
  B     1.360676   -0.785522    0.799810

----------------------------
CARTESIAN COORDINATES (A.U.)
----------------------------
  NO LB    ZA    FRAG    MASS        X           Y           Z
   0 B   5.0000    0    10.810    2.970298    0.000697   -1.510014
   1 B   5.0000    0    10.810    1.486981    2.575278   -1.509264
   2 B   5.0000    0    10.810   -1.484327    2.572528   -1.510311
   3 B   5.0000    0    10.810   -2.970745   -0.000676   -1.510375
   4 B   5.0000    0    10.810   -1.486554   -2.574640   -1.510140
   5 B   5.0000    0    10.810    1.484621   -2.572909   -1.510682
   6 B   5.0000    0    10.810    2.574306    1.487246    1.509826
   7 B   5.0000    0    10.810    0.000467    2.971967    1.509921
   8 B   5.0000    0    10.810   -2.572451    1.484852    1.511040
   9 B   5.0000    0    10.810   -2.573350   -1.486827    1.509366
  10 B   5.0000    0    10.810   -0.000551   -2.973095    1.509212
  11 B   5.0000    0    10.810    2.571306   -1.484422    1.511421

      -----------------------------------------------------------      
     |                   =====================                   |     
     |                           x T B                           |     
     |                   =====================                   |     
     |                         S. Grimme                         |     
     |          Mulliken Center for Theoretical Chemistry        |     
     |                    University of Bonn                     |     
      -----------------------------------------------------------      

   * xtb version 6.6.1 (unknown) compiled by 'builduser@buildhost' on 2023-08-07

   xtb is free software: you can redistribute it and/or modify it under
   the terms of the GNU Lesser General Public License as published by
   the Free Software Foundation, either version 3 of the License, or
   (at your option) any later version.
   
   xtb is distributed in the hope that it will be useful,
   but WITHOUT ANY WARRANTY; without even the implied warranty of
   MERCHANTABILITY or FITNESS FOR A PARTICULAR PURPOSE.  See the
   GNU Lesser General Public License for more details.
   
   Cite this work as:
   * C. Bannwarth, E. Caldeweyher, S. Ehlert, A. Hansen, P. Pracht,
     J. Seibert, S. Spicher, S. Grimme, WIREs Comput. Mol. Sci., 2020, 11,
     e01493. DOI: 10.1002/wcms.1493
   
   for GFN2-xTB:
   * C. Bannwarth, S. Ehlert and S. Grimme., J. Chem. Theory Comput., 2019,
     15, 1652-1671. DOI: 10.1021/acs.jctc.8b01176
   for GFN1-xTB:
   * S. Grimme, C. Bannwarth, P. Shushkov, J. Chem. Theory Comput., 2017,
     13, 1989-2009. DOI: 10.1021/acs.jctc.7b00118
   for GFN0-xTB:
   * P. Pracht, E. Caldeweyher, S. Ehlert, S. Grimme, ChemRxiv, 2019, preprint.
     DOI: 10.26434/chemrxiv.8326202.v1
   for GFN-FF:
   * S. Spicher and S. Grimme, Angew. Chem. Int. Ed., 2020, 59, 15665-15673.
     DOI: 10.1002/anie.202004239
   
   for ALPB and GBSA implicit solvation:
   * S. Ehlert, M. Stahn, S. Spicher, S. Grimme, J. Chem. Theory Comput.,
     2021, 17, 4250-4261. DOI: 10.1021/acs.jctc.1c00471
   
   for DFT-D4:
   * E. Caldeweyher, C. Bannwarth and S. Grimme, J. Chem. Phys., 2017,
     147, 034112. DOI: 10.1063/1.4993215
   * E. Caldeweyher, S. Ehlert, A. Hansen, H. Neugebauer, S. Spicher,
     C. Bannwarth and S. Grimme, J. Chem. Phys., 2019, 150, 154122.
     DOI: 10.1063/1.5090222
   * E. Caldeweyher, J.-M. Mewes, S. Ehlert and S. Grimme, Phys. Chem. Chem. Phys.
     2020, 22, 8499-8512. DOI: 10.1039/D0CP00502A
   
   for sTDA-xTB:
   * S. Grimme and C. Bannwarth, J. Chem. Phys., 2016, 145, 054103.
     DOI: 10.1063/1.4959605
   
   in the mass-spec context:
   * V. Asgeirsson, C. Bauer and S. Grimme, Chem. Sci., 2017, 8, 4879.
     DOI: 10.1039/c7sc00601b
   * J. Koopman and S. Grimme, ACS Omega 2019, 4, 12, 15120-15133.
     DOI: 10.1021/acsomega.9b02011
   
   for metadynamics refer to:
   * S. Grimme, J. Chem. Theory Comput., 2019, 155, 2847-2862
     DOI: 10.1021/acs.jctc.9b00143
   
   for SPH calculations refer to:
   * S. Spicher and S. Grimme, J. Chem. Theory Comput., 2021, 17, 1701-1714
     DOI: 10.1021/acs.jctc.0c01306
   
   with help from (in alphabetical order)
   P. Atkinson, C. Bannwarth, F. Bohle, G. Brandenburg, E. Caldeweyher
   M. Checinski, S. Dohm, S. Ehlert, S. Ehrlich, I. Gerasimov, C. Hölzer
   A. Katbashev, J. Koopman, C. Lavigne, S. Lehtola, F. März, M. Müller,
   F. Musil, H. Neugebauer, J. Pisarek, C. Plett, P. Pracht, F. Pultar,
   J. Seibert, P. Shushkov, S. Spicher, M. Stahn, M. Steiner, T. Strunk,
   J. Stückrath, T. Rose, and J. Unsleber
   
 * started run on 2026/04/17 at 12:14:30.632     

           -------------------------------------------------
          |                Calculation Setup                |
           -------------------------------------------------

          program call               : /usr/bin/xtb double_ring_6_6_d1.90_m3_XTB.xyz --grad -c 0 -u 2 -P 1 --namespace double_ring_6_6_d1.90_m3 --input double_ring_6_6_d1.90_m3_XTB.input.tmp --acc 0.200000
          calculation namespace      : double_ring_6_6_d1.90_m3
          coordinate file            : double_ring_6_6_d1.90_m3_XTB.xyz
          omp threads                :                     1

   ID    Z sym.   atoms
    1    5 B      1-12

           -------------------------------------------------
          |                 G F N 2 - x T B                 |
           -------------------------------------------------

        Reference                      10.1021/acs.jctc.8b01176
      * Hamiltonian:
        H0-scaling (s, p, d)           1.850000    2.230000    2.230000
        zeta-weighting                 0.500000
      * Dispersion:
        s8                             2.700000
        a1                             0.520000
        a2                             5.000000
        s9                             5.000000
      * Repulsion:
        kExp                           1.500000    1.000000
        rExp                           1.000000
      * Coulomb:
        alpha                          2.000000
        third order                    shell-resolved
        anisotropic                    true
        a3                             3.000000
        a5                             4.000000
        cn-shift                       1.200000
        cn-exp                         4.000000
        max-rad                        5.000000

q/qsh data taken from xtbrestart
CAMM data taken from xtbrestart

          ...................................................
          :                      SETUP                      :
          :.................................................:
          :  # basis functions                  48          :
          :  # atomic orbitals                  48          :
          :  # shells                           24          :
          :  # electrons                        36          :
          :  max. iterations                   250          :
          :  Hamiltonian                  GFN2-xTB          :
          :  restarted?                       true          :
          :  GBSA solvation                  false          :
          :  PC potential                    false          :
          :  electronic temp.          300.0000000     K    :
          :  accuracy                    0.2000000          :
          :  -> integral cutoff          0.3198970E+02      :
          :  -> integral neglect         0.2000000E-08      :
          :  -> SCF convergence          0.2000000E-06 Eh   :
          :  -> wf. convergence          0.2000000E-04 e    :
          :  Broyden damping             0.4000000          :
          ...................................................

 iter      E             dE          RMSdq      gap      omega  full diag
   1    -14.4785705 -0.144786E+02  0.499E-03    1.90       0.0  T
   2    -14.4785701  0.428897E-06  0.613E-03    1.90       4.7  T
   3    -14.4785700  0.477770E-07  0.688E-03    1.90       4.2  T
   4    -14.4785703 -0.255225E-06  0.357E-03    1.90       8.1  T
   5    -14.4785705 -0.205435E-06  0.155E-03    1.90      18.6  T
   6    -14.4785705 -0.620849E-07  0.762E-04    1.90      37.9  T
   7    -14.4785705 -0.310386E-08  0.491E-04    1.90      58.8  T
   8    -14.4785706 -0.387162E-08  0.320E-05    1.90     901.3  T
   9    -14.4785706  0.148876E-10  0.466E-05    1.90     619.5  T

   *** convergence criteria satisfied after 9 iterations ***

         #    Occupation            Energy/Eh            Energy/eV
      -------------------------------------------------------------
         1        2.0000           -0.4142432             -11.2721
       ...           ...                  ...                  ...
        13        2.0000           -0.2752771              -7.4907
        14        2.0000           -0.2752542              -7.4900
        15        2.0000           -0.2427349              -6.6052
        16        2.0000           -0.2427288              -6.6050
        17        1.5101           -0.2301548              -6.2628
        18        1.4899           -0.2300782              -6.2607
        19        1.0000           -0.1957343              -5.3262 (HOMO)
        20                         -0.1258933              -3.4257 (LUMO)
        21                         -0.1258796              -3.4254
        22                         -0.1149902              -3.1290
        23                         -0.1149810              -3.1288
        24                         -0.1007380              -2.7412
       ...                                ...                  ...
        48                          1.0901843              29.6654
      -------------------------------------------------------------
                  HL-Gap            0.0698410 Eh            1.9005 eV
             Fermi-level           -0.1954652 Eh           -5.3189 eV

 transition dipole moment (au) for excitation:          18          19
     X       Y       Z   
   0.0005  -0.0004   0.0002  total (au/Debye):    0.001   0.002
 dE (eV)             :    0.935
 oscillator strength :  0.13900E-07

 SCC (total)                   0 d,  0 h,  0 min,  0.022 sec
 SCC setup                      ...        0 min,  0.000 sec (  0.714%)
 Dispersion                     ...        0 min,  0.000 sec (  0.412%)
 classical contributions        ...        0 min,  0.000 sec (  0.155%)
 integral evaluation            ...        0 min,  0.003 sec ( 11.420%)
 iterations                     ...        0 min,  0.010 sec ( 44.950%)
 molecular gradient             ...        0 min,  0.006 sec ( 25.079%)
 printout                       ...        0 min,  0.004 sec ( 17.167%)

         :::::::::::::::::::::::::::::::::::::::::::::::::::::
         ::                     SUMMARY                     ::
         :::::::::::::::::::::::::::::::::::::::::::::::::::::
         :: total energy             -14.260345466348 Eh    ::
         :: gradient norm              0.000161221843 Eh/a0 ::
         :: HOMO-LUMO gap              1.900470586671 eV    ::
         ::.................................................::
         :: SCC energy               -14.478570552301 Eh    ::
         :: -> isotropic ES            0.078116948925 Eh    ::
         :: -> anisotropic ES          0.003938285178 Eh    ::
         :: -> anisotropic XC         -0.028902167386 Eh    ::
         :: -> dispersion             -0.011314187424 Eh    ::
         :: repulsion energy           0.218222306660 Eh    ::
         :: add. restraining           0.000000000000 Eh    ::
         :: total charge              -0.000000000000 e     ::
         :::::::::::::::::::::::::::::::::::::::::::::::::::::


Property printout bound to 'properties.out'

           -------------------------------------------------
          | TOTAL ENERGY              -14.260345466348 Eh   |
          | GRADIENT NORM               0.000161221843 Eh/α |
          | HOMO-LUMO GAP               1.900470586671 eV   |
           -------------------------------------------------

------------------------------------------------------------------------
 * finished run on 2026/04/17 at 12:14:30.667     
------------------------------------------------------------------------
 total:
 * wall-time:     0 d,  0 h,  0 min,  0.035 sec
 *  cpu-time:     0 d,  0 h,  0 min,  0.035 sec
 * ratio c/w:     0.999 speedup
 SCF:
 * wall-time:     0 d,  0 h,  0 min,  0.022 sec
 *  cpu-time:     0 d,  0 h,  0 min,  0.022 sec
 * ratio c/w:     1.000 speedup


-------------------------   --------------------
FINAL SINGLE POINT ENERGY       -14.260345466350
-------------------------   --------------------


-------------
DIPOLE MOMENT
-------------
                                X             Y             Z
Total Dipole Moment    :     -0.00000       0.00000      -0.00000
                        -----------------------------------------
Magnitude (a.u.)       :      0.00000
Magnitude (Debye)      :      0.00000

                                *** OPTIMIZATION RUN DONE ***


--------------------------------
SUGGESTED CITATIONS FOR THIS RUN
--------------------------------

Below you find a list of papers that are relevant to this ORCA run
We neither can nor want to force you to cite these papers, but we appreciate if you do
You receive ORCA, which is the product of decades of hard work by many enthusiastic individuals, for free
The only thing we kindly ask in return is that you cite our papers,
We deeply appreciate it, if you show your appreciation for ORCA by not just citing the generic ORCA reference.

Please note that relegating all ORCA citations to the supporting information does *not* help us.
SI sections are not indexed - citations you put there will not count into any citation statistics
But we need these citations in order to attract the funding resources that allow us to do what we are doing

Therefore, if you are a happy ORCA user, please consider citing a few of the papers listed below in the main body of your paper

In addition to the list printed below, the program has created the file double_ring_6_6_d1.90_m3.bibtex that contains the list in bibtex format
You can import this file easily into all common literature databanks and citation aid programs

It goes without saying that in many instances, there are alternative algorithms to achieve similar
results as the ones you have gotten from ORCA. It is, of course, also the case that in some instances
ORCA just re-implements algorithms worked out by others. We are fully aware of that and we are also
fully appreciative of our colleagues work. Hence this citation list should not be read as indicating
that the listed papers, which are focused on our own work, are the only ones worth citing. It simply
meant to make it easier for users to cite ORCA specific papers. It is not a substitute for doing your
own literature research and citing the relevant literature in a scientifically appropriate manner.

List of essential papers. We consider these as the minimum necessary citations

  1. Bannwarth, C.; Ehlert, S.; Grimme, S.
     GFN2-xTB—An Accurate and Broadly Parametrized Self-Consistent Tight-Binding Quantum Chemical Method with Multipole Electrostatics and Density-Dependent Dispersion Contributions
     J. Chem. Theory Comput. 2019 15(3), 1652-1671
     doi.org/10.1021/acs.jctc.8b01176
  2. Neese, F.
     Software update: the ORCA program system, version 6.0
     WIRES Comput. Molec. Sci. 2025 15(1), e70019
     doi.org/10.1002/wcms.70019

List of papers to cite with high priority. The work reported in these papers was absolutely
necessary for this run to complete.
Our perspective: the developers of density functionals and basis sets usually get cited in chemistry papers
Good! But without the algorithms to do something with them, the functionals or basis sets would not do anything.
Hence, in our opinion, the algorithm design and method developments papers are equally worthy of getting cited

  1. Bannwarth, C.; Caldeweyher, E.; Ehlert, S.; Hansen, A.; Pracht, P.; Seibert, J.; Spicher, S.; Grimme, S.
     Extended tight-binding quantum chemistry methods
     WIRES Comput. Molec. Sci. 2020 11(2), e1493
     doi.org/10.1002/wcms.1493

List of suggested additional citations. These are papers that are important in the 'surrounding' of 
of this run, or papers that preceded the highly important papers. If you like your results we are grateful for a citation.

  1. Neese, F.
     The ORCA program system
     WIRES Comput. Molec. Sci. 2012 2(1), 73-78
     doi.org/10.1002/wcms.81
  2. Neese, F.
     Software update: the ORCA program system, version 4.0
     WIRES Comput. Molec. Sci. 2018 8(1), 1-6
     doi.org/10.1002/wcms.1327
  3. Neese, F.; Wennmohs, F.; Becker, U.; Riplinger, C.
     The ORCA quantum chemistry program package
     J. Chem. Phys. 2020 152(22), 224108
     doi.org/10.1063/5.0004608
  4. Neese, F.
     Software update: The ORCA program system—Version 5.0
     WIRES Comput. Molec. Sci. 2022 12(1), e1606
     doi.org/10.1002/wcms.1606

List of optional additional citations

  1. Neese, F.
     Approximate second-order SCF convergence for spin unrestricted wavefunctions
     Chem. Phys. Lett. 2000 325(1-3), 93-98
     doi.org/10.1016/s0009-2614(00)00662-x

Timings for individual modules:

Sum of individual times          ...        1.362 sec (=   0.023 min)
Geometry relaxation              ...        0.395 sec (=   0.007 min)  29.0 %
XTB module                       ...        0.967 sec (=   0.016 min)  71.0 %
                             ****ORCA TERMINATED NORMALLY****
TOTAL RUN TIME: 0 days 0 hours 0 minutes 1 seconds 573 msec
