
                                 *****************
                                 * O   R   C   A *
                                 *****************

                                            #,                                       
                                            ###                                      
                                            ####                                     
                                            #####                                    
                                            ######                                   
                                           ########,                                 
                                     ,,################,,,,,                         
                               ,,#################################,,                 
                          ,,##########################################,,             
                       ,#########################################, ''#####,          
                    ,#############################################,,   '####,        
                  ,##################################################,,,,####,       
                ,###########''''           ''''###############################       
              ,#####''   ,,,,##########,,,,          '''####'''          '####       
            ,##' ,,,,###########################,,,                        '##       
           ' ,,###''''                  '''############,,,                           
         ,,##''                                '''############,,,,        ,,,,,,###''
      ,#''                                            '''#######################'''  
     '                                                          ''''####''''         
             ,#######,   #######,   ,#######,      ##                                
            ,#'     '#,  ##    ##  ,#'     '#,    #''#        ,####,    ,#,          
            ##       ##  ##   ,#'  ##            #'  '#       #'       ,# #          
            ##       ##  #######   ##           ,######,      #####,      #          
            '#,     ,#'  ##    ##  '#,     ,#' ,#      #,     #,   #      #          
             '#######'   ##     ##  '#######'  #'      '#     '####' #    #          



                #########################################################
                #                        -***-                          #
                #          Department of theory and spectroscopy        #
                #                                                       #
                #                      Frank Neese                      #
                #                                                       #
                #     Directorship, Architecture, Infrastructure        #
                #                    SHARK, DRIVERS                     #
                #        Core code/Algorithms in most modules           #
                #                                                       #
                #        Max Planck Institute fuer Kohlenforschung      #
                #                Kaiser Wilhelm Platz 1                 #
                #                 D-45470 Muelheim/Ruhr                 #
                #                      Germany                          #
                #                                                       #
                #                  All rights reserved                  #
                #                        -***-                          #
                #########################################################


                         Program Version 6.1.1  -  RELEASE   -
                                (GIT: $487d211c$)
                          ($2025-11-21 10:33:24 +0100$)
                                                                         
                                  - NO-DMRG VERSION -                    
                                                                         


 With contributions from (in alphabetic order):
[Max-Planck-Institut fuer Kohlenforschung]                               
  Daniel Aravena         : Magnetic Suceptibility                        
  Michael Atanasov       : Ab Initio Ligand Field Theory (pilot matlab implementation)
  Alexander A. Auer      : GIAO ZORA, VPT2 properties, NMR spectrum      
  Ute Becker             : All parallelization in ORCA, NUMFREQ, NUMCALC 
  Giovanni Bistoni       : ED, misc. LED, open-shell LED, HFLD           
  Dmytro Bykov           : pre 5.0 version of the SCF Hessian            
  Marcos Casanova-Páez   : Triplet and SCS-CIS(D). UHF-(DLPNO)-IP/EA/STEOM-CCSD. UHF-CVS-IP/STEOM-CCSD   
  Vijay G. Chilkuri      : MRCI spin determinant printing, contributions to CSF-ICE 
  Pauline Colinet        : FMM embedding                                 
  Dipayan Datta          : RHF DLPNO-CCSD density                        
  Achintya Kumar Dutta   : EOM-CC, STEOM-CC                              
  Nicolas Foglia         : Exact transition moments, OPA infrastructure, MCD improvements    
  Dmitry Ganyushin       : Spin-Orbit,Spin-Spin,Magnetic field MRCI      
  Miquel Garcia-Rates    : C-PCM and meta-GGA Hessian, CCSD/C-PCM, Gaussian charge scheme 
  Tiago L. C. Gouveia    : GS-ROHF, GS-ROCIS                             
  Yang Guo               : DLPNO-NEVPT2, F12-NEVPT2, CIM, IAO-localization        
  Andreas Hansen         : Spin unrestricted coupled pair/coupled cluster methods 
  Ingolf Harden          : AUTO-CI MPn and infrastructure                
  Benjamin Helmich-Paris : MC-RPA, TRAH-(SCF,CASSCF), AVAS, COSX integrals, SCF dyn. polar., MC-PDFT, srDFT 
  Lee Huntington         : MR-EOM, pCC                                   
  Robert Izsak           : Overlap fitted RIJCOSX, COSX-SCS-MP3, EOM     
  Riya Kayal             : Wick's Theorem for AUTO-CI, AUTO-CI UHF-CCSDT 
  Emily Kempfer          : AUTO-CI RHF CISDT and CCSDT, approximate NEVPT4
  Christian Kollmar      : KDIIS, OOCD, Brueckner-CCSD(T), CCSD density, CASPT2, CASPT2-K, improved NEVPT2 
  Axel Koslowski         : Symmetry handling                             
  Simone Kossmann        : meta-GGA functionals, TD-DFT gradient, OOMP2, (MP2 Hessian; deprecated post 5.0) 
  Lucas Lang             : DCDCAS, Hyperfine gauge corrections, ICE-SOC+SSC
  Marvin Lechner         : AUTO-CI (C++ implementation), FIC-MRCC        
  Spencer Leger          : CASSCF response                               
  Dagmar Lenk            : GEPOL surface, SMD, ORCA-2-JSON               
  Dimitrios Liakos       : Extrapolation schemes; Compound Job, Property file
  Dimitrios Manganas     : Further ROCIS development; embedding schemes. LFT, Crystal Embedding 
  Dimitrios Pantazis     : SARC Basis sets                               
  Anastasios Papadopoulos: AUTO-CI, single reference methods and gradients 
  Taras Petrenko         : pre 6.0 DFT Hessian and TD-DFT gradient,  ECA, NRVS 
  Petra Pikulova         : Analytic Raman intensities                    
  Peter Pinski           : DLPNO-MP2, DLPNO-MP2 Gradient                 
  Shashank Vittal Rao    : ES-AILFT, MagRelax                            
  Christoph Reimann      : Effective Core Potentials                     
  Marius Retegan         : Local ZFS, SOC                                
  Christoph Riplinger    : Optimizer, TS searches, QM/MM, DLPNO-CCSD(T), (RO)-DLPNO pert. Triples 
  Michael Roemelt        : Original ROCIS implementation, recursive CI coupling coefficients
  Masaaki Saitow         : Open-shell DLPNO-CCSD energy and density      
  Barbara Sandhoefer     : DKH picture change effects                    
  Yorick L. A. Schmerwitz: GMF and freeze-and-release deltaSCF, NEB S-IDPP initial path                    
  Kantharuban Sivalingam : CASSCF convergence/infrastructure, NEVPT2, NEVPT3, NEVPT4(SD), FIC-MRCI and CEPA variants
  Bernardo de Souza      : ESD, SOC TD-DFT                               
  Georgi L. Stoychev     : AutoAux, RI-MP2 NMR, DLPNO-MP2 response, X2C  
  Van Anh Tran           : RI-MP2 g-tensors                              
  Willem Van den Heuvel  : Paramagnetic NMR                              
  Zikuan Wang            : NOTCH, Electric field optimization            
  Frank Wennmohs         : Technical directorship and infrastructure     
  Hang Xu                : AUTO-CI-Response properties                   
                                                                         
[FACCTs GmbH]                                                            
  Markus Bursch, Nicolas Foglia, Miquel Garcia-Rates, Ingolf Harden, Hagen Neugebauer, Anastasios Papadopoulos, 
  Christoph Riplinger, Bernardo de Souza, Georgi L. Stoychev                                                    
                                                                 
  APM, various basis sets, CI-OPT, improved COSX, DLPNO-Multilevel,           
  DOCKER, DRACO, updates on ESD, Fragmentator, GOAT, IRC, LR-CPCM, L-BFGS, MBIS, meta-GGA TD-DFT gradient, ML-optimized integration grids, 
  MM, NACMEs, nearIR, NEB, NEB-TS, NL-DFT gradient (VV10), 2- and 3-layer-ONIOM, interface openCOSMO-RS, QMMM,   
  Crystal-QMMM, RESP, rigid body optimization, SF, symmetry and pop. for TD-DFT, various functionals, SOLVATOR                                   
                                                                         
[Other institutions]                                                     
  V. Asgeirsson          : NEB                                           
  Christoph Bannwarth    : sTDA-DFT, sTD-DFT, PBEh-3c, B97-3c, D3        
  Giovanni Bistoni       : ETS/NOCV, ADLD/ADEX, COVALED                  
  Martin Brehm           : Molecular dynamics                            
  Ronald Cardenas        : ETS/NOCV                                      
  Martina Colucci        : COVALED                                       
  Sebastian Ehlert       : rSCAN, r2SCAN, r2SCAN-3c, D4, dhf basis sets  
  Marvin Friede          : D4 for Fr, Ra, Ac-Lr                          
  Lars Goerigk           : TD-DFT with DH, B97 family of functionals     
  Stefan Grimme          : VdW corrections, initial TS optimization, DFT functionals, gCP, sTDA/sTD-DF 
  Waldemar Hujo          : DFT-NL                                        
  H. Jonsson             : NEB                                           
  Holger Kruse           : gCP                                           
  Marcel Mueller         : wB97X-3c, vDZP basis set                      
  Hagen Neugebauer       : wr2SCAN, Native XTB                           
  Gianluca Regni         : ADLD/ADEX                                     
  Tobias Risthaus        : pre 6.0 range-separated hybrid DFT and stability analysis
  Lukas Wittmann         : regularized MP2, r2SCAN double-hybrids, wr2SCAN        
                                                                         
We gratefully acknowledge several colleagues who have allowed us to      
interface, adapt or use parts of their codes:                            
  Ed Valeev, F. Pavosevic, A. Kumar             : LibInt (2-el integral package), F12 methods 
  Garnet Chan, S. Sharma, J. Yang, R. Olivares  : DMRG                   
  Ulf Ekstrom                                   : XCFun DFT Library      
  Mihaly Kallay                                 : mrcc  (arbitrary order and MRCC methods)
  Frank Weinhold                                : gennbo (NPA and NBO analysis)           
  Simon Mueller                                 : openCOSMO-RS                            
  Christopher J. Cramer and Donald G. Truhlar   : smd solvation model                     
  S Lehtola, MJT Oliveira, MAL Marques          : LibXC Library                           
  Liviu Ungur et al                             : ANISO software                          


 Your calculation uses the libint2 library for the computation of 2-el integrals
 For citations please refer to: http://libint.valeyev.net

 Your ORCA version has been built with support for libXC version: 7.0.0
 For citations please refer to: https://libxc.gitlab.io

 This ORCA versions uses:
   CBLAS   interface :  Fast vector & matrix operations
   LAPACKE interface :  Fast linear algebra routines
   SCALAPACK package :  Parallel linear algebra routines
   Shared memory     :  Shared parallel matrices
   BLAS/LAPACK       :  OpenBLAS 0.3.29  USE64BITINT DYNAMIC_ARCH NO_AFFINITY Zen SINGLE_THREADED
        Core in use  :  Zen
   Copyright (c) 2011-2014, The OpenBLAS Project


  ***********************************
  * Starting time: Fri Apr 17 12:14:37 2026
  * Host name:     vmi3233575
  * Process ID:    337393
  * Working dir.:  /root/orca_b12_vps_pack/jobs/01_xtb/mult_3
  ***********************************

NOTE: MaxCore=500 MB was set to SCF,MP2,MDCI,CIPSI,MRCI,RASCI and CIS
      => If you want to overwrite this, your respective input block should be placed after the MaxCore statement


***************************************
The coordinates will be read from file: ../../../starts/random_d1.70_005.xyz
***************************************


Your calculation utilizes the semiempirical GFN2-xTB method
Please cite in your paper:
Bannwarth, C.; Ehlert S.; Grimme, S. J. Chem. Theory Comput. 2019, 15, 1652.
   

================================================================================

================================================================================
                                        WARNINGS
                       Please study these warnings very carefully!
================================================================================


WARNING: Geometry Optimization
  ===> : Switching off AutoStart
         For restart on a previous wavefunction, please use MOREAD

WARNING: Found dipole moment calculation with XTB calculation
  ===> : Switching off dipole moment calculation

Environment variable XTBEXE for xtb has been set!

================================================================================
                                       INPUT FILE
================================================================================
NAME = random_d1.70_005_m3.inp
|  1> ! GFN2-xTB TightSCF TightOpt
|  2> 
|  3> %pal
|  4>   nprocs 1
|  5> end
|  6> 
|  7> %maxcore 500
|  8> 
|  9> * xyzfile 0 3 ../../../starts/random_d1.70_005.xyz
| 10> 
| 11>                          ****END OF INPUT****
================================================================================

                       *****************************
                       * Geometry Optimization Run *
                       *****************************

Geometry optimization settings:
Update method            Update   .... BFGS
Choice of coordinates    CoordSys .... (2022) Redundant Internals
Initial Hessian          InHess   .... Almloef's Model
Max. no of cycles        MaxIter  .... 50

Convergence Tolerances:
Energy Change            TolE     ....  1.0000e-06 Eh
Max. Gradient            TolMAXG  ....  1.0000e-04 Eh/bohr
RMS Gradient             TolRMSG  ....  3.0000e-05 Eh/bohr
Max. Displacement        TolMAXD  ....  1.0000e-03 bohr
RMS Displacement         TolRMSD  ....  6.0000e-04 bohr
Strict Convergence                .... False

------------------------------------------------------------------------------
                        ORCA OPTIMIZATION COORDINATE SETUP
------------------------------------------------------------------------------

The optimization will be done in redundant internal coordinates (2022)
Making redundant internal coordinates   ...  (2022 redundants) done
Evaluating the initial hessian          ...  (Almloef) done
Evaluating the coordinates              ...  done
Calculating the B-matrix                .... done
Calculating the G-matrix                .... done
The number of degrees of freedom        ....  201

    -----------------------------------------------------------------
                    Redundant Internal Coordinates


    -----------------------------------------------------------------
         Definition                    Initial Value    Approx d2E/dq
    -----------------------------------------------------------------
      1. B(B   1,B   0)                  1.1936         1.724646   
      2. B(B   2,B   0)                  1.4037         0.797109   
      3. B(B   3,B   1)                  2.8288         0.010000   
      4. B(B   3,B   0)                  3.1944         0.010000   
      5. B(B   4,B   1)                  2.2713         0.032905   
      6. B(B   4,B   3)                  2.5773         0.010692   
      7. B(B   5,B   4)                  2.6362         0.010000   
      8. B(B   6,B   5)                  2.6323         0.010000   
      9. B(B   6,B   4)                  2.3815         0.021957   
     10. B(B   8,B   1)                  1.7690         0.208282   
     11. B(B   8,B   4)                  2.3036         0.029225   
     12. B(B   8,B   7)                  1.9331         0.114010   
     13. B(B   9,B   4)                  2.4459         0.017330   
     14. B(B   9,B   6)                  2.3935         0.021005   
     15. B(B   9,B   5)                  1.1746         1.849092   
     16. B(B   9,B   8)                  2.8482         0.010000   
     17. B(B  10,B   4)                  1.7759         0.203081   
     18. B(B  10,B   6)                  2.2074         0.041622   
     19. B(B  10,B   9)                  2.6781         0.010000   
     20. B(B  11,B   8)                  2.0505         0.074054   
     21. A(B   1,B   0,B   2)          112.3110         0.569441   
     22. A(B   2,B   0,B   3)          108.8397         0.180018   
     23. A(B   1,B   0,B   3)           61.5996         0.197390   
     24. A(B   0,B   1,B   4)          131.2761         0.322524   
     25. A(B   0,B   1,B   8)          160.5035         0.443581   
     26. A(B   3,B   1,B   8)           94.8967         0.180042   
     27. A(B   4,B   1,B   8)           68.2198         0.233725   
     28. A(B   0,B   1,B   3)           96.6129         0.235902   
     29. A(B   3,B   1,B   4)           59.5188         0.148959   
     30. A(B   0,B   3,B   1)           21.7876         0.116830   
     31. A(B   0,B   3,B   4)           66.0416         0.123302   
     32. A(B   1,B   3,B   4)           49.4180         0.135490   
     33. A(B   6,B   4,B  10)           62.1403         0.220308   
     34. A(B   3,B   4,B   9)          163.0927         0.152919   
     35. A(B   3,B   4,B   6)          134.0838         0.156436   
     36. A(B   3,B   4,B   8)           90.1764         0.160945   
     37. A(B   5,B   4,B   8)           82.2006         0.157508   
     38. A(B   1,B   4,B   9)           99.5997         0.171438   
     39. A(B   3,B   4,B   5)          158.0573         0.143563   
     40. A(B   3,B   4,B  10)          100.0347         0.200573   
     41. A(B   8,B   4,B  10)           94.3614         0.229087   
     42. A(B   9,B   4,B  10)           76.9351         0.213460   
     43. A(B   1,B   4,B   3)           71.0632         0.162902   
     44. A(B   8,B   4,B   9)           73.6259         0.169255   
     45. A(B   6,B   4,B   9)           59.4306         0.164225   
     46. A(B   1,B   4,B   8)           45.4891         0.181790   
     47. A(B   5,B   4,B   9)           26.3869         0.149865   
     48. A(B   5,B   4,B   6)           63.0418         0.153214   
     49. A(B   6,B   4,B   8)          130.5236         0.173671   
     50. A(B   5,B   4,B  10)          101.0365         0.195242   
     51. A(B   1,B   4,B   6)          151.0061         0.175975   
     52. A(B   1,B   4,B  10)          137.1058         0.232899   
     53. A(B   1,B   4,B   5)           89.2181         0.159372   
     54. A(B   6,B   5,B   9)           65.3451         0.264731   
     55. A(B   4,B   5,B   6)           53.7466         0.141127   
     56. A(B   4,B   5,B   9)           67.7295         0.264154   
     57. A(B   5,B   6,B   9)           26.4887         0.152783   
     58. A(B   4,B   6,B   5)           63.2116         0.153426   
     59. A(B   5,B   6,B  10)           90.4671         0.163460   
     60. A(B   4,B   6,B   9)           61.6241         0.167573   
     61. A(B   9,B   6,B  10)           71.0641         0.179810   
     62. A(B   4,B   6,B  10)           45.3400         0.180726   
     63. A(B   1,B   8,B   7)          106.8856         0.280731   
     64. A(B   4,B   8,B   9)           55.4788         0.146437   
     65. A(B   4,B   8,B  11)          116.7027         0.200490   
     66. A(B   9,B   8,B  11)          134.6908         0.159890   
     67. A(B   7,B   8,B   9)          115.4790         0.167163   
     68. A(B   1,B   8,B   9)          100.0149         0.178585   
     69. A(B   4,B   8,B   7)          165.0118         0.211928   
     70. A(B   7,B   8,B  11)           78.2497         0.240720   
     71. A(B   1,B   8,B   4)           66.2911         0.229892   
     72. A(B   1,B   8,B  11)          117.6458         0.262892   
     73. A(B   4,B   9,B   6)           58.9452         0.163475   
     74. A(B   8,B   9,B  10)           66.0132         0.131068   
     75. A(B   4,B   9,B   8)           50.8953         0.140029   
     76. A(B   6,B   9,B   8)          108.2329         0.142300   
     77. A(B   5,B   9,B   8)           99.6013         0.235849   
     78. A(B   4,B   9,B   5)           85.8835         0.294188   
     79. A(B   4,B   9,B  10)           40.2372         0.147781   
     80. A(B   6,B   9,B  10)           51.2253         0.150396   
     81. A(B   5,B   9,B  10)          122.1044         0.258155   
     82. A(B   5,B   9,B   6)           88.1662         0.303318   
     83. A(B   4,B  10,B   6)           72.5197         0.240760   
     84. A(B   6,B  10,B   9)           57.7106         0.160674   
     85. A(B   4,B  10,B   9)           62.8277         0.191603   
     86. D(B   8,B   1,B   0,B   2)    134.1285         0.187046   
     87. D(B   4,B   1,B   0,B   3)     54.7101         0.187046   
     88. D(B   3,B   1,B   0,B   2)   -100.0745         0.187046   
     89. D(B   4,B   1,B   0,B   2)    -45.3644         0.187046   
     90. D(B   8,B   1,B   0,B   3)   -125.7970         0.187046   
     91. D(B   4,B   3,B   0,B   1)    -36.2687         0.010000   
     92. D(B   0,B   3,B   1,B   4)   -134.6175         0.010000   
     93. D(B   4,B   3,B   1,B   0)    134.6175         0.010000   
     94. D(B   0,B   3,B   1,B   8)    164.2349         0.010000   
     95. D(B   4,B   3,B   0,B   2)     69.4858         0.010000   
     96. D(B   1,B   3,B   0,B   2)    105.7545         0.010000   
     97. D(B   4,B   3,B   1,B   8)    -61.1476         0.010000   
     98. D(B  10,B   4,B   1,B   3)    -84.3391         0.010000   
     99. D(B   8,B   4,B   3,B   0)     58.8839         0.010000   
    100. D(B   8,B   4,B   1,B   3)   -109.9897         0.010000   
    101. D(B   8,B   4,B   1,B   0)    179.8178         0.010000   
    102. D(B   9,B   4,B   3,B   1)     58.4991         0.010000   
    103. D(B   8,B   4,B   3,B   1)     42.0792         0.010000   
    104. D(B   6,B   4,B   3,B   1)   -162.7534         0.010000   
    105. D(B   6,B   4,B   1,B   8)    -96.0743         0.010000   
    106. D(B   6,B   4,B   1,B   3)    153.9360         0.010000   
    107. D(B  10,B   4,B   3,B   0)    153.3445         0.010000   
    108. D(B   9,B   4,B   1,B   0)    124.3730         0.010000   
    109. D(B  10,B   4,B   3,B   1)    136.5398         0.010000   
    110. D(B  10,B   4,B   1,B   8)     25.6506         0.010000   
    111. D(B   6,B   4,B   1,B   0)     83.7435         0.010000   
    112. D(B  10,B   4,B   1,B   0)   -154.5316         0.010000   
    113. D(B   6,B   4,B   3,B   0)   -145.9487         0.010000   
    114. D(B   1,B   4,B   3,B   0)     16.8047         0.010000   
    115. D(B   9,B   5,B   4,B   1)    113.7517         0.010000   
    116. D(B   9,B   5,B   4,B  10)    -24.3065         0.010000   
    117. D(B   6,B   5,B   4,B   8)    143.6532         0.010000   
    118. D(B   6,B   5,B   4,B   1)   -171.2400         0.010000   
    119. D(B   6,B   5,B   4,B  10)     50.7019         0.010000   
    120. D(B   9,B   5,B   4,B   3)    139.2741         0.010000   
    121. D(B   9,B   5,B   4,B   6)    -75.0083         0.010000   
    122. D(B   9,B   5,B   4,B   8)     68.6449         0.010000   
    123. D(B   9,B   6,B   5,B   4)    -79.6007         0.010000   
    124. D(B   4,B   6,B   5,B   9)     79.6007         0.010000   
    125. D(B  10,B   6,B   5,B   4)    -37.6697         0.010000   
    126. D(B   9,B   6,B   4,B   5)     29.9076         0.010000   
    127. D(B   9,B   6,B   4,B   1)     48.2181         0.010000   
    128. D(B  10,B   6,B   4,B   8)     70.2047         0.010000   
    129. D(B  10,B   6,B   4,B   5)    120.7814         0.010000   
    130. D(B  10,B   6,B   4,B   9)     90.8738         0.010000   
    131. D(B  10,B   6,B   4,B   3)    -76.2575         0.010000   
    132. D(B   9,B   6,B   4,B   8)    -20.6691         0.010000   
    133. D(B  10,B   6,B   4,B   1)    139.0920         0.010000   
    134. D(B  10,B   6,B   5,B   9)     41.9310         0.010000   
    135. D(B   9,B   6,B   4,B  10)    -90.8738         0.010000   
    136. D(B   1,B   8,B   4,B   3)    -62.7349         0.010000   
    137. D(B   1,B   8,B   4,B   5)     96.6231         0.010000   
    138. D(B   1,B   8,B   4,B   9)    122.1805         0.010000   
    139. D(B   1,B   8,B   4,B   6)    140.6475         0.010000   
    140. D(B   1,B   8,B   4,B  10)   -162.8127         0.010000   
    141. D(B  11,B   8,B   1,B   3)    -54.5307         0.010000   
    142. D(B  11,B   8,B   1,B   4)   -108.9053         0.010000   
    143. D(B  11,B   8,B   1,B   0)     71.5051         0.010000   
    144. D(B   7,B   8,B   1,B   3)   -139.8702         0.010000   
    145. D(B   7,B   8,B   1,B   4)    165.7552         0.010000   
    146. D(B   4,B   8,B   1,B   0)   -179.5897         0.010000   
    147. D(B   7,B   8,B   4,B  10)    131.6215         0.010000   
    148. D(B   7,B   8,B   1,B   0)    -13.8345         0.010000   
    149. D(B   7,B   8,B   4,B   5)     31.0574         0.010000   
    150. D(B   7,B   8,B   4,B   9)     56.6147         0.010000   
    151. D(B   7,B   8,B   4,B   6)     75.0818         0.010000   
    152. D(B   7,B   8,B   4,B   1)    -65.5658         0.010000   
    153. D(B   6,B   9,B   8,B   4)    -14.6096         0.010000   
    154. D(B   6,B   9,B   8,B  11)     80.3663         0.010000   
    155. D(B   6,B   9,B   8,B   7)    179.2303         0.010000   
    156. D(B   5,B   9,B   8,B   4)     76.6255         0.010000   
    157. D(B   5,B   9,B   8,B  11)    171.6013         0.010000   
    158. D(B   5,B   9,B   8,B   7)    -89.5346         0.010000   
    159. D(B   8,B   9,B   6,B  10)    -35.5477         0.010000   
    160. D(B  10,B   9,B   6,B   5)    135.0537         0.010000   
    161. D(B  10,B   9,B   6,B   4)     48.7551         0.010000   
    162. D(B   4,B   9,B   6,B  10)    -48.7551         0.010000   
    163. D(B   5,B   9,B   6,B   4)    -86.2986         0.010000   
    164. D(B   5,B   9,B   6,B  10)   -135.0537         0.010000   
    165. D(B   8,B   9,B   5,B   4)    -49.1918         0.237924   
    166. D(B   8,B   9,B   5,B   6)   -108.1842         0.237924   
    167. D(B  10,B   9,B   5,B   4)     18.4373         0.237924   
    168. D(B  10,B   9,B   5,B   6)    -40.5551         0.237924   
    169. D(B   4,B   9,B   5,B   6)    -58.9924         0.237924   
    170. D(B   6,B   9,B   5,B   4)     58.9924         0.237924   
    171. D(B   4,B   9,B   6,B   5)     86.2986         0.010000   
    172. D(B   6,B   9,B   4,B   3)    146.6259         0.010000   
    173. D(B   6,B   9,B   4,B   5)    -90.3373         0.010000   
    174. D(B   6,B   9,B   4,B   8)    163.7608         0.010000   
    175. D(B   5,B   9,B   8,B   1)     24.7258         0.010000   
    176. D(B   6,B   9,B   4,B   1)   -158.4951         0.010000   
    177. D(B   6,B   9,B   4,B  10)     65.1597         0.010000   
    178. D(B   5,B   9,B   4,B   3)   -123.0368         0.010000   
    179. D(B   6,B   9,B   8,B   1)    -66.5093         0.010000   
    180. D(B   5,B   9,B   4,B   6)     90.3373         0.010000   
    181. D(B   5,B   9,B   4,B   8)   -105.9019         0.010000   
    182. D(B   5,B   9,B   4,B   1)    -68.1578         0.010000   
    183. D(B   5,B   9,B   4,B  10)    155.4970         0.010000   
    184. D(B   6,B  10,B   9,B   8)    142.8153         0.010000   
    185. D(B   6,B  10,B   9,B   4)     85.6970         0.010000   
    186. D(B   6,B  10,B   9,B   5)     56.4649         0.010000   
    187. D(B   4,B  10,B   9,B   8)     57.1183         0.010000   
    188. D(B   4,B  10,B   9,B   6)    -85.6970         0.010000   
    189. D(B   9,B  10,B   6,B   5)    -18.3668         0.010000   
    190. D(B   9,B  10,B   6,B   4)    -68.4474         0.010000   
    191. D(B   4,B  10,B   6,B   5)     50.0806         0.010000   
    192. D(B   4,B  10,B   6,B   9)     68.4474         0.010000   
    193. D(B   9,B  10,B   4,B   6)     62.1032         0.010000   
    194. D(B   9,B  10,B   4,B   8)    -72.0650         0.010000   
    195. D(B   4,B  10,B   9,B   5)    -29.2321         0.010000   
    196. D(B   9,B  10,B   4,B   1)    -90.0996         0.010000   
    197. D(B   6,B  10,B   4,B   3)    134.8789         0.010000   
    198. D(B   6,B  10,B   4,B   5)    -51.2789         0.010000   
    199. D(B   6,B  10,B   4,B   9)    -62.1032         0.010000   
    200. D(B   6,B  10,B   4,B   8)   -134.1681         0.010000   
    201. D(B   6,B  10,B   4,B   1)   -152.2028         0.010000   
    -----------------------------------------------------------------

Number of atoms                         .... 12
Number of degrees of freedom            .... 201


         *************************************************************
         *                GEOMETRY OPTIMIZATION CYCLE   1            *
         *************************************************************
---------------------------------
CARTESIAN COORDINATES (ANGSTROEM)
---------------------------------
  B     2.266212   -1.063779    0.433713
  B     1.137006   -0.685249    0.513183
  B     2.684320   -1.217399   -0.897435
  B     1.738962    2.035876    0.998168
  B     0.025327    0.956022   -0.595579
  B    -1.037765   -0.874917   -2.166285
  B    -1.199676    1.733049   -2.484207
  B    -0.941564   -2.169181    2.039705
  B    -0.547804   -0.563151    1.038521
  B    -1.840729   -0.347774   -1.490149
  B    -1.376012    2.006412   -0.300943
  B    -0.908278    0.190092    2.911308

----------------------------
CARTESIAN COORDINATES (A.U.)
----------------------------
  NO LB    ZA    FRAG    MASS        X           Y           Z
   0 B   5.0000    0    10.810    4.282521   -2.010251    0.819600
   1 B   5.0000    0    10.810    2.148631   -1.294934    0.969774
   2 B   5.0000    0    10.810    5.072630   -2.300551   -1.695907
   3 B   5.0000    0    10.810    3.286162    3.847247    1.886264
   4 B   5.0000    0    10.810    0.047861    1.806620   -1.125481
   5 B   5.0000    0    10.810   -1.961091   -1.653354   -4.093686
   6 B   5.0000    0    10.810   -2.267060    3.274988   -4.694471
   7 B   5.0000    0    10.810   -1.779298   -4.099158    3.854484
   8 B   5.0000    0    10.810   -1.035200   -1.064202    1.962520
   9 B   5.0000    0    10.810   -3.478474   -0.657198   -2.815974
  10 B   5.0000    0    10.810   -2.600285    3.791570   -0.568700
  11 B   5.0000    0    10.810   -1.716397    0.359222    5.501576

      -----------------------------------------------------------      
     |                   =====================                   |     
     |                           x T B                           |     
     |                   =====================                   |     
     |                         S. Grimme                         |     
     |          Mulliken Center for Theoretical Chemistry        |     
     |                    University of Bonn                     |     
      -----------------------------------------------------------      

   * xtb version 6.6.1 (unknown) compiled by 'builduser@buildhost' on 2023-08-07

   xtb is free software: you can redistribute it and/or modify it under
   the terms of the GNU Lesser General Public License as published by
   the Free Software Foundation, either version 3 of the License, or
   (at your option) any later version.
   
   xtb is distributed in the hope that it will be useful,
   but WITHOUT ANY WARRANTY; without even the implied warranty of
   MERCHANTABILITY or FITNESS FOR A PARTICULAR PURPOSE.  See the
   GNU Lesser General Public License for more details.
   
   Cite this work as:
   * C. Bannwarth, E. Caldeweyher, S. Ehlert, A. Hansen, P. Pracht,
     J. Seibert, S. Spicher, S. Grimme, WIREs Comput. Mol. Sci., 2020, 11,
     e01493. DOI: 10.1002/wcms.1493
   
   for GFN2-xTB:
   * C. Bannwarth, S. Ehlert and S. Grimme., J. Chem. Theory Comput., 2019,
     15, 1652-1671. DOI: 10.1021/acs.jctc.8b01176
   for GFN1-xTB:
   * S. Grimme, C. Bannwarth, P. Shushkov, J. Chem. Theory Comput., 2017,
     13, 1989-2009. DOI: 10.1021/acs.jctc.7b00118
   for GFN0-xTB:
   * P. Pracht, E. Caldeweyher, S. Ehlert, S. Grimme, ChemRxiv, 2019, preprint.
     DOI: 10.26434/chemrxiv.8326202.v1
   for GFN-FF:
   * S. Spicher and S. Grimme, Angew. Chem. Int. Ed., 2020, 59, 15665-15673.
     DOI: 10.1002/anie.202004239
   
   for ALPB and GBSA implicit solvation:
   * S. Ehlert, M. Stahn, S. Spicher, S. Grimme, J. Chem. Theory Comput.,
     2021, 17, 4250-4261. DOI: 10.1021/acs.jctc.1c00471
   
   for DFT-D4:
   * E. Caldeweyher, C. Bannwarth and S. Grimme, J. Chem. Phys., 2017,
     147, 034112. DOI: 10.1063/1.4993215
   * E. Caldeweyher, S. Ehlert, A. Hansen, H. Neugebauer, S. Spicher,
     C. Bannwarth and S. Grimme, J. Chem. Phys., 2019, 150, 154122.
     DOI: 10.1063/1.5090222
   * E. Caldeweyher, J.-M. Mewes, S. Ehlert and S. Grimme, Phys. Chem. Chem. Phys.
     2020, 22, 8499-8512. DOI: 10.1039/D0CP00502A
   
   for sTDA-xTB:
   * S. Grimme and C. Bannwarth, J. Chem. Phys., 2016, 145, 054103.
     DOI: 10.1063/1.4959605
   
   in the mass-spec context:
   * V. Asgeirsson, C. Bauer and S. Grimme, Chem. Sci., 2017, 8, 4879.
     DOI: 10.1039/c7sc00601b
   * J. Koopman and S. Grimme, ACS Omega 2019, 4, 12, 15120-15133.
     DOI: 10.1021/acsomega.9b02011
   
   for metadynamics refer to:
   * S. Grimme, J. Chem. Theory Comput., 2019, 155, 2847-2862
     DOI: 10.1021/acs.jctc.9b00143
   
   for SPH calculations refer to:
   * S. Spicher and S. Grimme, J. Chem. Theory Comput., 2021, 17, 1701-1714
     DOI: 10.1021/acs.jctc.0c01306
   
   with help from (in alphabetical order)
   P. Atkinson, C. Bannwarth, F. Bohle, G. Brandenburg, E. Caldeweyher
   M. Checinski, S. Dohm, S. Ehlert, S. Ehrlich, I. Gerasimov, C. Hölzer
   A. Katbashev, J. Koopman, C. Lavigne, S. Lehtola, F. März, M. Müller,
   F. Musil, H. Neugebauer, J. Pisarek, C. Plett, P. Pracht, F. Pultar,
   J. Seibert, P. Shushkov, S. Spicher, M. Stahn, M. Steiner, T. Strunk,
   J. Stückrath, T. Rose, and J. Unsleber
   
 * started run on 2026/04/17 at 12:14:37.566     

           -------------------------------------------------
          |                Calculation Setup                |
           -------------------------------------------------

          program call               : /usr/bin/xtb random_d1.70_005_m3_XTB.xyz --grad -c 0 -u 2 -P 1 --namespace random_d1.70_005_m3 --input random_d1.70_005_m3_XTB.input.tmp --acc 0.200000
          calculation namespace      : random_d1.70_005_m3
          coordinate file            : random_d1.70_005_m3_XTB.xyz
          omp threads                :                     1

   ID    Z sym.   atoms
    1    5 B      1-12

molecular fragmentation (1/2 indicates fragments):
111222222222
# atoms in fragment 1/2:     3     9
 fragment masses (1/2) :       32.43       97.30
CMA distance (Bohr)    :   5.688
constraining FC (au)   :  0.0500

           -------------------------------------------------
          |                 G F N 2 - x T B                 |
           -------------------------------------------------

        Reference                      10.1021/acs.jctc.8b01176
      * Hamiltonian:
        H0-scaling (s, p, d)           1.850000    2.230000    2.230000
        zeta-weighting                 0.500000
      * Dispersion:
        s8                             2.700000
        a1                             0.520000
        a2                             5.000000
        s9                             5.000000
      * Repulsion:
        kExp                           1.500000    1.000000
        rExp                           1.000000
      * Coulomb:
        alpha                          2.000000
        third order                    shell-resolved
        anisotropic                    true
        a3                             3.000000
        a5                             4.000000
        cn-shift                       1.200000
        cn-exp                         4.000000
        max-rad                        5.000000


          ...................................................
          :                      SETUP                      :
          :.................................................:
          :  # basis functions                  48          :
          :  # atomic orbitals                  48          :
          :  # shells                           24          :
          :  # electrons                        36          :
          :  max. iterations                   250          :
          :  Hamiltonian                  GFN2-xTB          :
          :  restarted?                      false          :
          :  GBSA solvation                  false          :
          :  PC potential                    false          :
          :  electronic temp.          300.0000000     K    :
          :  accuracy                    0.2000000          :
          :  -> integral cutoff          0.3198970E+02      :
          :  -> integral neglect         0.2000000E-08      :
          :  -> SCF convergence          0.2000000E-06 Eh   :
          :  -> wf. convergence          0.2000000E-04 e    :
          :  Broyden damping             0.4000000          :
          ...................................................

 iter      E             dE          RMSdq      gap      omega  full diag
   1    -13.1750537 -0.131751E+02  0.181E+01    0.10       0.0  T
   2     -1.6847108  0.114903E+02  0.200E+01    0.25       1.0  T
   3     11.1271451  0.128119E+02  0.273E+01    0.48       1.0  T
   4     -5.3422947 -0.164694E+02  0.179E+01    0.34       1.0  T
   5     -3.5705574  0.177174E+01  0.192E+01    0.62       1.0  T
   6      0.9348680  0.450543E+01  0.175E+01    0.25       1.0  T
   7     -4.2817950 -0.521666E+01  0.164E+01    0.15       1.0  T
   8    -11.9904129 -0.770862E+01  0.922E+00    0.06       1.0  T
   9    -11.0681257  0.922287E+00  0.108E+01    0.18       1.0  T
  10    -12.9390870 -0.187096E+01  0.712E+00    0.11       1.0  T
  11    -13.0417566 -0.102670E+00  0.668E+00    0.14       1.0  T
  12    -12.9095505  0.132206E+00  0.695E+00    0.18       1.0  T
  13    -12.9241017 -0.145512E-01  0.675E+00    0.11       1.0  T
  14    -13.0015356 -0.774339E-01  0.609E+00    0.14       1.0  T
  15    -13.0802397 -0.787042E-01  0.548E+00    0.12       1.0  T
  16    -13.1902061 -0.109966E+00  0.526E+00    0.13       1.0  T
  17    -13.1980534 -0.784727E-02  0.531E+00    0.13       1.0  T
  18    -13.2279819 -0.299285E-01  0.499E+00    0.15       1.0  T
  19    -13.3624888 -0.134507E+00  0.374E+00    0.18       1.0  T
  20    -13.3074282  0.550606E-01  0.369E+00    0.11       1.0  T
  21    -13.3535158 -0.460876E-01  0.359E+00    0.13       1.0  T
  22    -13.3491784  0.433740E-02  0.359E+00    0.13       1.0  T
  23    -13.3895781 -0.403997E-01  0.337E+00    0.16       1.0  T
  24    -13.4547545 -0.651763E-01  0.227E+00    0.19       1.0  T
  25    -13.4563493 -0.159485E-02  0.225E+00    0.19       1.0  T
  26    -13.4628373 -0.648802E-02  0.208E+00    0.21       1.0  T
  27    -13.4862742 -0.234369E-01  0.162E+00    0.18       1.0  T
  28    -13.5011321 -0.148579E-01  0.127E+00    0.19       1.0  T
  29    -13.4995813  0.155075E-02  0.124E+00    0.18       1.0  T
  30    -13.5034695 -0.388817E-02  0.111E+00    0.19       1.0  T
  31    -13.5093007 -0.583119E-02  0.717E-01    0.20       1.0  T
  32    -13.5086003  0.700383E-03  0.677E-01    0.20       1.0  T
  33    -13.5074601  0.114023E-02  0.634E-01    0.20       1.0  T
  34    -13.5087951 -0.133502E-02  0.523E-01    0.20       1.0  T
  35    -13.5086125  0.182600E-03  0.452E-01    0.20       1.0  T
  36    -13.5101852 -0.157266E-02  0.345E-01    0.21       1.0  T
  37    -13.5109923 -0.807164E-03  0.255E-01    0.21       1.0  T
  38    -13.5110677 -0.753918E-04  0.250E-01    0.21       1.0  T
  39    -13.5118789 -0.811208E-03  0.164E-01    0.21       1.0  T
  40    -13.5118811 -0.219157E-05  0.163E-01    0.21       1.0  T
  41    -13.5121777 -0.296598E-03  0.890E-02    0.21       1.0  T
  42    -13.5121833 -0.554595E-05  0.771E-02    0.21       1.0  T
  43    -13.5121971 -0.137914E-04  0.550E-02    0.21       1.0  T
  44    -13.5121992 -0.210032E-05  0.320E-02    0.21       1.0  T
  45    -13.5122159 -0.167070E-04  0.175E-02    0.21       1.6  T
  46    -13.5122160 -0.154378E-06  0.164E-02    0.21       1.8  T
  47    -13.5122192 -0.317263E-05  0.578E-03    0.21       5.0  T
  48    -13.5122188  0.388694E-06  0.711E-03    0.21       4.1  T
  49    -13.5122192 -0.431785E-06  0.450E-03    0.21       6.4  T
  50    -13.5122193 -0.368333E-07  0.374E-03    0.21       7.7  T
  51    -13.5122194 -0.106704E-06  0.251E-03    0.21      11.5  T
  52    -13.5122195 -0.865433E-07  0.726E-04    0.21      39.7  T
  53    -13.5122195  0.936106E-09  0.725E-04    0.21      39.8  T
  54    -13.5122195 -0.519133E-08  0.313E-04    0.21      92.3  T
  55    -13.5122195 -0.732207E-09  0.201E-04    0.21     143.9  T
  56    -13.5122195 -0.105494E-09  0.128E-04    0.21     225.3  T
  57    -13.5122195 -0.496794E-10  0.988E-05    0.21     292.1  T

   *** convergence criteria satisfied after 57 iterations ***

         #    Occupation            Energy/Eh            Energy/eV
      -------------------------------------------------------------
         1        2.0000           -0.4196330             -11.4188
       ...           ...                  ...                  ...
        13        2.0000           -0.2836361              -7.7181
        14        2.0000           -0.2797934              -7.6136
        15        2.0000           -0.2634793              -7.1696
        16        1.9977           -0.2570100              -6.9936
        17        1.8642           -0.2530149              -6.8849
        18        1.1343           -0.2494896              -6.7890
        19        0.9844           -0.2458376              -6.6896 (HOMO)
        20        0.0134           -0.2380002              -6.4763 (LUMO)
        21        0.0058           -0.2371971              -6.4545
        22        0.0001           -0.2335284              -6.3546
        23        0.0000           -0.2310716              -6.2878
        24                         -0.2256160              -6.1393
       ...                                ...                  ...
        48                          3.6088567              98.2020
      -------------------------------------------------------------
                  HL-Gap            0.0078374 Eh            0.2133 eV
             Fermi-level           -0.2466707 Eh           -6.7123 eV

 transition dipole moment (au) for excitation:          18          19
     X       Y       Z   
   0.3831   0.8681  -1.0538  total (au/Debye):    1.418   3.604
 dE (eV)             :    0.099
 oscillator strength :  0.69235E-02

 SCC (total)                   0 d,  0 h,  0 min,  0.087 sec
 SCC setup                      ...        0 min,  0.000 sec (  0.148%)
 Dispersion                     ...        0 min,  0.000 sec (  0.107%)
 classical contributions        ...        0 min,  0.000 sec (  0.039%)
 integral evaluation            ...        0 min,  0.003 sec (  3.525%)
 iterations                     ...        0 min,  0.073 sec ( 83.724%)
 molecular gradient             ...        0 min,  0.006 sec (  7.272%)
 printout                       ...        0 min,  0.004 sec (  5.161%)

         :::::::::::::::::::::::::::::::::::::::::::::::::::::
         ::                     SUMMARY                     ::
         :::::::::::::::::::::::::::::::::::::::::::::::::::::
         :: total energy             -12.985658213405 Eh    ::
         :: gradient norm              1.404897054022 Eh/a0 ::
         :: HOMO-LUMO gap              0.213266567887 eV    ::
         ::.................................................::
         :: SCC energy               -13.512219469714 Eh    ::
         :: -> isotropic ES            0.063564696691 Eh    ::
         :: -> anisotropic ES         -0.000023059469 Eh    ::
         :: -> anisotropic XC         -0.029868422037 Eh    ::
         :: -> dispersion             -0.023117288707 Eh    ::
         :: repulsion energy           0.526389259028 Eh    ::
         :: add. restraining           0.000000000000 Eh    ::
         :: total charge              -0.000000000737 e     ::
         :::::::::::::::::::::::::::::::::::::::::::::::::::::


Property printout bound to 'properties.out'

           -------------------------------------------------
          | TOTAL ENERGY              -12.985658213405 Eh   |
          | GRADIENT NORM               1.404897054022 Eh/α |
          | HOMO-LUMO GAP               0.213266567887 eV   |
           -------------------------------------------------

------------------------------------------------------------------------
 * finished run on 2026/04/17 at 12:14:37.666     
------------------------------------------------------------------------
 total:
 * wall-time:     0 d,  0 h,  0 min,  0.100 sec
 *  cpu-time:     0 d,  0 h,  0 min,  0.099 sec
 * ratio c/w:     0.993 speedup
 SCF:
 * wall-time:     0 d,  0 h,  0 min,  0.087 sec
 *  cpu-time:     0 d,  0 h,  0 min,  0.086 sec
 * ratio c/w:     0.993 speedup


-------------------------   --------------------
FINAL SINGLE POINT ENERGY       -12.985658213410
-------------------------   --------------------


-------------
DIPOLE MOMENT
-------------
                                X             Y             Z
Total Dipole Moment    :      0.07600      -1.07000      -1.80300
                        -----------------------------------------
Magnitude (a.u.)       :      2.09797
Magnitude (Debye)      :      5.33262


------------------
CARTESIAN GRADIENT
------------------

   1   B   :   -0.635099154    0.210643791    0.012719872
   2   B   :    0.677870216   -0.233016691   -0.052979224
   3   B   :   -0.015475650    0.006495805    0.036654202
   4   B   :    0.027100142    0.026575700    0.028985099
   5   B   :    0.049505931   -0.035076082   -0.049266557
   6   B   :   -0.474924458    0.296771134    0.404877894
   7   B   :    0.006973454    0.033576753   -0.081577094
   8   B   :   -0.011680810   -0.081011674    0.030065825
   9   B   :   -0.009747735    0.030073304   -0.058346356
  10   B   :    0.451186653   -0.346266348   -0.402331890
  11   B   :   -0.057692543    0.052521473    0.076525701
  12   B   :   -0.008016046    0.038712833    0.054672527

Difference to translation invariance:
           :    0.0000000000   -0.0000000000    0.0000000000

Difference to rotation invariance:
           :   -0.0000001633    0.0000000001    0.0000000102

Norm of the Cartesian gradient     ...    1.4048970540
RMS gradient                       ...    0.2341495090
MAX gradient                       ...    0.6778702163
------------------------------------------------------------------------------
                         ORCA GEOMETRY RELAXATION STEP
------------------------------------------------------------------------------

Reading the OPT-File                    .... done
Getting information on internals        .... done
Copying old internal coords+grads       .... done
Making the new internal coordinates     .... (2022 redundants) done
Validating the new internal coordinates .... (2022 redundants) done
Calculating the B-matrix                .... done
Calculating the G,G- and P matrices     .... done
Transforming gradient to internals      .... done
Projecting the internal gradient        .... done
Number of atoms                         ....  12
Number of internal coordinates          .... 201
Current Energy                          ....   -12.985658213 Eh
Current gradient norm                   ....     1.404897054 Eh/bohr
Maximum allowed component of the step   ....  0.300
Current trust radius                    ....  0.300
Evaluating the initial hessian          ....  (Almloef) done
Projecting the Hessian                  .... done
Forming the augmented Hessian           .... done
Diagonalizing the augmented Hessian     .... done
Last element of RFO vector              ....  0.874631495
Lowest eigenvalues of augmented Hessian:
 -0.436823315  0.012714462  0.015506617  0.019525151  0.020840993
Length of the computed step             ....  0.554277267
Warning: the length of the step is outside the trust region - taking restricted step instead
The input lambda is                     ....     0.011646
   iter:   5  x=   -0.009684  g= 1221.466759 f(x)=    12.273679
   iter:  10  x=   -0.543994  g=    1.325485 f(x)=     0.357529
   iter:  15  x=   -1.585178  g=    0.066224 f(x)=     0.000026
The output lambda is                    ....    -1.585178 (17 iterations)
The final length of the internal step   ....  0.300000000
Converting the step to Cartesian space:
 Initial RMS(Int)=    0.0211603685
Transforming coordinates:
 Iter   0:  RMS(Cart)=    0.0433904602 RMS(Int)=    0.0211541875
done
Storing new coordinates                 .... done

                                .--------------------.
          ----------------------|Geometry convergence|-------------------------
          Item                value                   Tolerance       Converged
          ---------------------------------------------------------------------
          RMS gradient        0.0596216434            0.0000300000      NO
          MAX gradient        0.5753579982            0.0001000000      NO
          RMS step            0.0211603685            0.0006000000      NO
          MAX step            0.1896825525            0.0010000000      NO
          -------------------------------------------------------------------------
          ........................................................
          Max(Bonds)      0.1004      Max(Angles)    1.83
          Max(Dihed)        2.00      Max(Improp)    0.00
          ---------------------------------------------------------------------

The optimization has not yet converged - more geometry cycles are needed


    ---------------------------------------------------------------------------
                         Redundant Internal Coordinates
                            (Angstroem and degrees)

        Definition                    Value    dE/dq     Step     New-Value
    ----------------------------------------------------------------------------
     1. B(B   1,B   0)                1.1936 -0.575358  0.1004    1.2940   
     2. B(B   2,B   0)                1.4037 -0.040080  0.0089    1.4126   
     3. B(B   3,B   1)                2.8288  0.100942 -0.0201    2.8087   
     4. B(B   3,B   0)                3.1944 -0.116603  0.0195    3.2140   
     5. B(B   4,B   1)                2.2713  0.023708 -0.0055    2.2658   
     6. B(B   4,B   3)                2.5773  0.016259 -0.0076    2.5698   
     7. B(B   5,B   4)                2.6362 -0.082739  0.0157    2.6519   
     8. B(B   6,B   5)                2.6323 -0.079087  0.0135    2.6458   
     9. B(B   6,B   4)                2.3815  0.040276 -0.0113    2.3702   
    10. B(B   8,B   1)                1.7690  0.033788 -0.0084    1.7606   
    11. B(B   8,B   4)                2.3036  0.000756 -0.0020    2.3016   
    12. B(B   8,B   7)                1.9331  0.085257 -0.0266    1.9065   
    13. B(B   9,B   4)                2.4459  0.011229 -0.0036    2.4423   
    14. B(B   9,B   6)                2.3935  0.031485 -0.0085    2.3850   
    15. B(B   9,B   5)                1.1746 -0.426390  0.0818    1.2565   
    16. B(B   9,B   8)                2.8482  0.022024 -0.0056    2.8426   
    17. B(B  10,B   4)                1.7759  0.034159 -0.0123    1.7636   
    18. B(B  10,B   6)                2.2074  0.032747 -0.0117    2.1956   
    19. B(B  10,B   9)                2.6781  0.076885 -0.0179    2.6602   
    20. B(B  11,B   8)                2.0505  0.065564 -0.0209    2.0296   
    21. A(B   1,B   0,B   2)          112.31 -0.011086    0.25    112.56   
    22. A(B   2,B   0,B   3)          108.84 -0.019836    0.40    109.24   
    23. A(B   1,B   0,B   3)           61.60  0.063803   -1.29     60.31   
    24. A(B   0,B   1,B   4)          131.28  0.026275   -0.46    130.82   
    25. A(B   0,B   1,B   8)          160.50 -0.016676    0.27    160.78   
    26. A(B   3,B   1,B   8)           94.90 -0.018185    0.30     95.19   
    27. A(B   4,B   1,B   8)           68.22 -0.009621    0.18     68.40   
    28. A(B   0,B   1,B   3)           96.61  0.031915   -0.52     96.09   
    29. A(B   3,B   1,B   4)           59.52 -0.014065    0.19     59.71   
    30. A(B   0,B   3,B   1)           21.79 -0.095719    1.81     23.60   
    31. A(B   0,B   3,B   4)           66.04 -0.080570    1.56     67.60   
    32. A(B   1,B   3,B   4)           49.42 -0.007114    0.17     49.59   
    33. A(B   6,B   4,B  10)           62.14 -0.001819   -0.00     62.14   
    34. A(B   3,B   4,B   9)          163.09  0.019477   -0.37    162.73   
    35. A(B   3,B   4,B   6)          134.08 -0.017054    0.31    134.40   
    36. A(B   3,B   4,B   8)           90.18  0.013691   -0.26     89.92   
    37. A(B   5,B   4,B   8)           82.20 -0.029496    0.63     82.83   
    38. A(B   1,B   4,B   9)           99.60 -0.009945    0.17     99.77   
    39. A(B   3,B   4,B   5)          158.06  0.061863   -1.27    156.79   
    40. A(B   3,B   4,B  10)          100.03 -0.010711    0.21    100.24   
    41. A(B   8,B   4,B  10)           94.36  0.002625    0.01     94.38   
    42. A(B   9,B   4,B  10)           76.94  0.017656   -0.35     76.59   
    43. A(B   1,B   4,B   3)           71.06  0.021178   -0.36     70.70   
    44. A(B   8,B   4,B   9)           73.63  0.004046   -0.07     73.56   
    45. A(B   6,B   4,B   9)           59.43  0.001655   -0.04     59.39   
    46. A(B   1,B   4,B   8)           45.49  0.006194   -0.15     45.34   
    47. A(B   5,B   4,B   9)           26.39 -0.085863    1.79     28.18   
    48. A(B   5,B   4,B   6)           63.04 -0.012026    0.25     63.29   
    49. A(B   6,B   4,B   8)          130.52  0.000571    0.01    130.53   
    50. A(B   5,B   4,B  10)          101.04 -0.059318    1.25    102.28   
    51. A(B   1,B   4,B   6)          151.01 -0.007335    0.12    151.12   
    52. A(B   1,B   4,B  10)          137.11  0.011156   -0.17    136.94   
    53. A(B   1,B   4,B   5)           89.22  0.016669   -0.39     88.83   
    54. A(B   6,B   5,B   9)           65.35  0.052246   -1.14     64.21   
    55. A(B   4,B   5,B   6)           53.75  0.025545   -0.60     53.15   
    56. A(B   4,B   5,B   9)           67.73  0.052373   -1.15     66.58   
    57. A(B   5,B   6,B   9)           26.49 -0.087243    1.83     28.32   
    58. A(B   4,B   6,B   5)           63.21 -0.013519    0.35     63.56   
    59. A(B   5,B   6,B  10)           90.47 -0.049803    1.08     91.54   
    60. A(B   4,B   6,B   9)           61.62 -0.006580    0.18     61.81   
    61. A(B   9,B   6,B  10)           71.06  0.011251   -0.19     70.87   
    62. A(B   4,B   6,B  10)           45.34  0.001383   -0.09     45.25   
    63. A(B   1,B   8,B   7)          106.89 -0.007102    0.17    107.05   
    64. A(B   4,B   8,B   9)           55.48 -0.000689    0.01     55.49   
    65. A(B   4,B   8,B  11)          116.70 -0.006024    0.19    116.89   
    66. A(B   9,B   8,B  11)          134.69  0.009159   -0.16    134.54   
    67. A(B   7,B   8,B   9)          115.48 -0.010016    0.29    115.77   
    68. A(B   1,B   8,B   9)          100.01 -0.016395    0.32    100.34   
    69. A(B   4,B   8,B   7)          165.01 -0.007800    0.30    165.31   
    70. A(B   7,B   8,B  11)           78.25  0.014056   -0.49     77.76   
    71. A(B   1,B   8,B   4)           66.29  0.003428   -0.03     66.26   
    72. A(B   1,B   8,B  11)          117.65  0.009872   -0.16    117.49   
    73. A(B   4,B   9,B   6)           58.95  0.004926   -0.15     58.80   
    74. A(B   8,B   9,B  10)           66.01 -0.005081    0.07     66.09   
    75. A(B   4,B   9,B   8)           50.90 -0.003358    0.05     50.95   
    76. A(B   6,B   9,B   8)          108.23 -0.001555   -0.03    108.21   
    77. A(B   5,B   9,B   8)           99.60  0.017682   -0.34     99.26   
    78. A(B   4,B   9,B   5)           85.88  0.033490   -0.64     85.25   
    79. A(B   4,B   9,B  10)           40.24 -0.000775   -0.08     40.16   
    80. A(B   6,B   9,B  10)           51.23 -0.004334    0.01     51.24   
    81. A(B   5,B   9,B  10)          122.10  0.033841   -0.75    121.36   
    82. A(B   5,B   9,B   6)           88.17  0.034997   -0.70     87.47   
    83. A(B   4,B  10,B   6)           72.52  0.000437    0.10     72.62   
    84. A(B   6,B  10,B   9)           57.71 -0.006917    0.18     57.89   
    85. A(B   4,B  10,B   9)           62.83 -0.016881    0.42     63.25   
    86. D(B   8,B   1,B   0,B   2)    134.13 -0.012390    0.22    134.35   
    87. D(B   4,B   1,B   0,B   3)     54.71 -0.000781   -0.02     54.69   
    88. D(B   3,B   1,B   0,B   2)   -100.07 -0.002313    0.06   -100.02   
    89. D(B   4,B   1,B   0,B   2)    -45.36 -0.003093    0.03    -45.33   
    90. D(B   8,B   1,B   0,B   3)   -125.80 -0.010077    0.17   -125.63   
    91. D(B   4,B   3,B   0,B   1)    -36.27 -0.010544    0.21    -36.06   
    92. D(B   0,B   3,B   1,B   4)   -134.62 -0.015544    0.27   -134.34   
    93. D(B   4,B   3,B   1,B   0)    134.62  0.015544   -0.27    134.34   
    94. D(B   0,B   3,B   1,B   8)    164.23 -0.010806    0.18    164.41   
    95. D(B   4,B   3,B   0,B   2)     69.49 -0.001223    0.04     69.53   
    96. D(B   1,B   3,B   0,B   2)    105.75  0.009321   -0.16    105.59   
    97. D(B   4,B   3,B   1,B   8)    -61.15  0.004738   -0.10    -61.24   
    98. D(B  10,B   4,B   1,B   3)    -84.34 -0.002127    0.01    -84.33   
    99. D(B   8,B   4,B   3,B   0)     58.88 -0.058083    1.06     59.95   
   100. D(B   8,B   4,B   1,B   3)   -109.99  0.007675   -0.12   -110.11   
   101. D(B   8,B   4,B   1,B   0)    179.82 -0.003503    0.07    179.89   
   102. D(B   9,B   4,B   3,B   1)     58.50 -0.002746    0.12     58.62   
   103. D(B   8,B   4,B   3,B   1)     42.08  0.008057   -0.18     41.90   
   104. D(B   6,B   4,B   3,B   1)   -162.75  0.005342   -0.11   -162.86   
   105. D(B   6,B   4,B   1,B   8)    -96.07 -0.017697    0.34    -95.73   
   106. D(B   6,B   4,B   1,B   3)    153.94 -0.010022    0.22    154.15   
   107. D(B  10,B   4,B   3,B   0)    153.34 -0.053164    1.03    154.38   
   108. D(B   9,B   4,B   1,B   0)    124.37 -0.028703    0.54    124.91   
   109. D(B  10,B   4,B   3,B   1)    136.54  0.012975   -0.20    136.33   
   110. D(B  10,B   4,B   1,B   8)     25.65 -0.009802    0.14     25.79   
   111. D(B   6,B   4,B   1,B   0)     83.74 -0.021201    0.41     84.16   
   112. D(B  10,B   4,B   1,B   0)   -154.53 -0.013306    0.21   -154.32   
   113. D(B   6,B   4,B   3,B   0)   -145.95 -0.060797    1.13   -144.82   
   114. D(B   1,B   4,B   3,B   0)     16.80 -0.066139    1.24     18.04   
   115. D(B   9,B   5,B   4,B   1)    113.75  0.016524   -0.34    113.41   
   116. D(B   9,B   5,B   4,B  10)    -24.31  0.012001   -0.31    -24.61   
   117. D(B   6,B   5,B   4,B   8)    143.65  0.042724   -0.88    142.77   
   118. D(B   6,B   5,B   4,B   1)   -171.24  0.042565   -0.89   -172.13   
   119. D(B   6,B   5,B   4,B  10)     50.70  0.038042   -0.86     49.85   
   120. D(B   9,B   5,B   4,B   3)    139.27 -0.086117    1.90    141.17   
   121. D(B   9,B   5,B   4,B   6)    -75.01 -0.026041    0.55    -74.46   
   122. D(B   9,B   5,B   4,B   8)     68.64  0.016683   -0.33     68.31   
   123. D(B   9,B   6,B   5,B   4)    -79.60 -0.024200    0.53    -79.07   
   124. D(B   4,B   6,B   5,B   9)     79.60  0.024200   -0.53     79.07   
   125. D(B  10,B   6,B   5,B   4)    -37.67 -0.034453    0.79    -36.88   
   126. D(B   9,B   6,B   4,B   5)     29.91 -0.096101    2.00     31.91   
   127. D(B   9,B   6,B   4,B   1)     48.22 -0.008997    0.15     48.37   
   128. D(B  10,B   6,B   4,B   8)     70.20  0.001644    0.01     70.22   
   129. D(B  10,B   6,B   4,B   5)    120.78 -0.073304    1.58    122.36   
   130. D(B  10,B   6,B   4,B   9)     90.87  0.022797   -0.42     90.45   
   131. D(B  10,B   6,B   4,B   3)    -76.26  0.005828   -0.08    -76.34   
   132. D(B   9,B   6,B   4,B   8)    -20.67 -0.021153    0.43    -20.24   
   133. D(B  10,B   6,B   4,B   1)    139.09  0.013800   -0.27    138.82   
   134. D(B  10,B   6,B   5,B   9)     41.93 -0.010254    0.26     42.20   
   135. D(B   9,B   6,B   4,B  10)    -90.87 -0.022797    0.42    -90.45   
   136. D(B   1,B   8,B   4,B   3)    -62.73 -0.019598    0.33    -62.40   
   137. D(B   1,B   8,B   4,B   5)     96.62  0.051849   -1.15     95.47   
   138. D(B   1,B   8,B   4,B   9)    122.18 -0.028364    0.52    122.70   
   139. D(B   1,B   8,B   4,B   6)    140.65 -0.009709    0.14    140.79   
   140. D(B   1,B   8,B   4,B  10)   -162.81 -0.009966    0.14   -162.67   
   141. D(B  11,B   8,B   1,B   3)    -54.53 -0.001388   -0.12    -54.65   
   142. D(B  11,B   8,B   1,B   4)   -108.91  0.008442   -0.25   -109.15   
   143. D(B  11,B   8,B   1,B   0)     71.51  0.015829   -0.40     71.11   
   144. D(B   7,B   8,B   1,B   3)   -139.87 -0.016705    0.41   -139.46   
   145. D(B   7,B   8,B   1,B   4)    165.76 -0.006875    0.28    166.03   
   146. D(B   4,B   8,B   1,B   0)   -179.59  0.007386   -0.15   -179.74   
   147. D(B   7,B   8,B   4,B  10)    131.62 -0.010188    0.19    131.81   
   148. D(B   7,B   8,B   1,B   0)    -13.83  0.000512    0.13    -13.71   
   149. D(B   7,B   8,B   4,B   5)     31.06  0.051626   -1.10     29.96   
   150. D(B   7,B   8,B   4,B   9)     56.61 -0.028586    0.57     57.18   
   151. D(B   7,B   8,B   4,B   6)     75.08 -0.009931    0.18     75.27   
   152. D(B   7,B   8,B   4,B   1)    -65.57 -0.000222    0.05    -65.52   
   153. D(B   6,B   9,B   8,B   4)    -14.61 -0.014818    0.32    -14.29   
   154. D(B   6,B   9,B   8,B  11)     80.37 -0.030217    0.71     81.08   
   155. D(B   6,B   9,B   8,B   7)    179.23 -0.013457    0.17    179.40   
   156. D(B   5,B   9,B   8,B   4)     76.63  0.028159   -0.54     76.09   
   157. D(B   5,B   9,B   8,B  11)    171.60  0.012759   -0.15    171.45   
   158. D(B   5,B   9,B   8,B   7)    -89.53  0.029520   -0.69    -90.22   
   159. D(B   8,B   9,B   6,B  10)    -35.55  0.015245   -0.23    -35.78   
   160. D(B  10,B   9,B   6,B   5)    135.05  0.014842   -0.35    134.70   
   161. D(B  10,B   9,B   6,B   4)     48.76 -0.003241   -0.02     48.73   
   162. D(B   4,B   9,B   6,B  10)    -48.76  0.003241    0.02    -48.73   
   163. D(B   5,B   9,B   6,B   4)    -86.30 -0.018082    0.33    -85.97   
   164. D(B   5,B   9,B   6,B  10)   -135.05 -0.014842    0.35   -134.70   
   165. D(B   8,B   9,B   5,B   4)    -49.19 -0.001802    0.05    -49.15   
   166. D(B   8,B   9,B   5,B   6)   -108.18 -0.004672    0.15   -108.03   
   167. D(B  10,B   9,B   5,B   4)     18.44  0.000406   -0.01     18.42   
   168. D(B  10,B   9,B   5,B   6)    -40.56 -0.002465    0.09    -40.46   
   169. D(B   4,B   9,B   5,B   6)    -58.99 -0.002871    0.11    -58.89   
   170. D(B   6,B   9,B   5,B   4)     58.99  0.002871   -0.11     58.89   
   171. D(B   4,B   9,B   6,B   5)     86.30  0.018082   -0.33     85.97   
   172. D(B   6,B   9,B   4,B   3)    146.63 -0.004162    0.01    146.64   
   173. D(B   6,B   9,B   4,B   5)    -90.34 -0.020385    0.42    -89.92   
   174. D(B   6,B   9,B   4,B   8)    163.76 -0.015843    0.33    164.09   
   175. D(B   5,B   9,B   8,B   1)     24.73  0.007169   -0.18     24.55   
   176. D(B   6,B   9,B   4,B   1)   -158.50  0.001385   -0.02   -158.51   
   177. D(B   6,B   9,B   4,B  10)     65.16 -0.011680    0.18     65.34   
   178. D(B   5,B   9,B   4,B   3)   -123.04  0.016222   -0.41   -123.44   
   179. D(B   6,B   9,B   8,B   1)    -66.51 -0.035807    0.69    -65.82   
   180. D(B   5,B   9,B   4,B   6)     90.34  0.020385   -0.42     89.92   
   181. D(B   5,B   9,B   4,B   8)   -105.90  0.004542   -0.09   -105.99   
   182. D(B   5,B   9,B   4,B   1)    -68.16  0.021769   -0.44    -68.59   
   183. D(B   5,B   9,B   4,B  10)    155.50  0.008705   -0.24    155.26   
   184. D(B   6,B  10,B   9,B   8)    142.82  0.014082   -0.23    142.58   
   185. D(B   6,B  10,B   9,B   4)     85.70  0.013833   -0.21     85.49   
   186. D(B   6,B  10,B   9,B   5)     56.46  0.011290   -0.21     56.25   
   187. D(B   4,B  10,B   9,B   8)     57.12  0.000249   -0.02     57.10   
   188. D(B   4,B  10,B   9,B   6)    -85.70 -0.013833    0.21    -85.49   
   189. D(B   9,B  10,B   6,B   5)    -18.37  0.063197   -1.34    -19.71   
   190. D(B   9,B  10,B   6,B   4)    -68.45  0.019652   -0.43    -68.88   
   191. D(B   4,B  10,B   6,B   5)     50.08  0.043545   -0.91     49.17   
   192. D(B   4,B  10,B   6,B   9)     68.45 -0.019652    0.43     68.88   
   193. D(B   9,B  10,B   4,B   6)     62.10 -0.006550    0.12     62.23   
   194. D(B   9,B  10,B   4,B   8)    -72.06 -0.006238    0.13    -71.94   
   195. D(B   4,B  10,B   9,B   5)    -29.23 -0.002543   -0.00    -29.23   
   196. D(B   9,B  10,B   4,B   1)    -90.10 -0.001639    0.08    -90.02   
   197. D(B   6,B  10,B   4,B   3)    134.88 -0.013253    0.25    135.13   
   198. D(B   6,B  10,B   4,B   5)    -51.28 -0.032404    0.71    -50.57   
   199. D(B   6,B  10,B   4,B   9)    -62.10  0.006550   -0.12    -62.23   
   200. D(B   6,B  10,B   4,B   8)   -134.17  0.000313    0.00   -134.17   
   201. D(B   6,B  10,B   4,B   1)   -152.20  0.004911   -0.04   -152.25   
    ----------------------------------------------------------------------------

Geometry step timings:
Preparation and reading OPT file:      0.000 s ( 1.207 %)
Internal coordinates            :      0.000 s ( 0.427 %)
B/P matrices and projection     :      0.003 s (18.829 %)
Hessian update/contruction      :      0.003 s (18.125 %)
Making the step                 :      0.008 s (48.416 %)
Converting the step to Cartesian:      0.000 s ( 2.206 %)
Storing new data                :      0.000 s ( 0.484 %)
Checking convergence            :      0.000 s ( 0.522 %)
Final printing                  :      0.002 s ( 9.760 %)
Total time                      :      0.016 s

Time for energy+gradient        :      0.110 s
Time for complete geometry iter :      0.128 s

         *************************************************************
         *                GEOMETRY OPTIMIZATION CYCLE   2            *
         *************************************************************
---------------------------------
CARTESIAN COORDINATES (ANGSTROEM)
---------------------------------
  B     2.333627   -1.085258    0.427735
  B     1.108612   -0.678846    0.518922
  B     2.755479   -1.238971   -0.911614
  B     1.725240    2.019214    0.996922
  B     0.005440    0.959366   -0.591216
  B    -1.015537   -0.889200   -2.195544
  B    -1.216502    1.734965   -2.468121
  B    -0.958103   -2.131644    2.042745
  B    -0.567209   -0.555199    1.044333
  B    -1.874401   -0.328399   -1.469714
  B    -1.382021    2.007394   -0.295768
  B    -0.914627    0.186577    2.901321

----------------------------
CARTESIAN COORDINATES (A.U.)
----------------------------
  NO LB    ZA    FRAG    MASS        X           Y           Z
   0 B   5.0000    0    10.810    4.409915   -2.050840    0.808302
   1 B   5.0000    0    10.810    2.094974   -1.282833    0.980621
   2 B   5.0000    0    10.810    5.207101   -2.341315   -1.722702
   3 B   5.0000    0    10.810    3.260232    3.815761    1.883909
   4 B   5.0000    0    10.810    0.010280    1.812939   -1.117236
   5 B   5.0000    0    10.810   -1.919087   -1.680345   -4.148977
   6 B   5.0000    0    10.810   -2.298855    3.278609   -4.664072
   7 B   5.0000    0    10.810   -1.810552   -4.028223    3.860228
   8 B   5.0000    0    10.810   -1.071870   -1.049174    1.973503
   9 B   5.0000    0    10.810   -3.542104   -0.620584   -2.777357
  10 B   5.0000    0    10.810   -2.611640    3.793425   -0.558920
  11 B   5.0000    0    10.810   -1.728394    0.352580    5.482702

      -----------------------------------------------------------      
     |                   =====================                   |     
     |                           x T B                           |     
     |                   =====================                   |     
     |                         S. Grimme                         |     
     |          Mulliken Center for Theoretical Chemistry        |     
     |                    University of Bonn                     |     
      -----------------------------------------------------------      

   * xtb version 6.6.1 (unknown) compiled by 'builduser@buildhost' on 2023-08-07

   xtb is free software: you can redistribute it and/or modify it under
   the terms of the GNU Lesser General Public License as published by
   the Free Software Foundation, either version 3 of the License, or
   (at your option) any later version.
   
   xtb is distributed in the hope that it will be useful,
   but WITHOUT ANY WARRANTY; without even the implied warranty of
   MERCHANTABILITY or FITNESS FOR A PARTICULAR PURPOSE.  See the
   GNU Lesser General Public License for more details.
   
   Cite this work as:
   * C. Bannwarth, E. Caldeweyher, S. Ehlert, A. Hansen, P. Pracht,
     J. Seibert, S. Spicher, S. Grimme, WIREs Comput. Mol. Sci., 2020, 11,
     e01493. DOI: 10.1002/wcms.1493
   
   for GFN2-xTB:
   * C. Bannwarth, S. Ehlert and S. Grimme., J. Chem. Theory Comput., 2019,
     15, 1652-1671. DOI: 10.1021/acs.jctc.8b01176
   for GFN1-xTB:
   * S. Grimme, C. Bannwarth, P. Shushkov, J. Chem. Theory Comput., 2017,
     13, 1989-2009. DOI: 10.1021/acs.jctc.7b00118
   for GFN0-xTB:
   * P. Pracht, E. Caldeweyher, S. Ehlert, S. Grimme, ChemRxiv, 2019, preprint.
     DOI: 10.26434/chemrxiv.8326202.v1
   for GFN-FF:
   * S. Spicher and S. Grimme, Angew. Chem. Int. Ed., 2020, 59, 15665-15673.
     DOI: 10.1002/anie.202004239
   
   for ALPB and GBSA implicit solvation:
   * S. Ehlert, M. Stahn, S. Spicher, S. Grimme, J. Chem. Theory Comput.,
     2021, 17, 4250-4261. DOI: 10.1021/acs.jctc.1c00471
   
   for DFT-D4:
   * E. Caldeweyher, C. Bannwarth and S. Grimme, J. Chem. Phys., 2017,
     147, 034112. DOI: 10.1063/1.4993215
   * E. Caldeweyher, S. Ehlert, A. Hansen, H. Neugebauer, S. Spicher,
     C. Bannwarth and S. Grimme, J. Chem. Phys., 2019, 150, 154122.
     DOI: 10.1063/1.5090222
   * E. Caldeweyher, J.-M. Mewes, S. Ehlert and S. Grimme, Phys. Chem. Chem. Phys.
     2020, 22, 8499-8512. DOI: 10.1039/D0CP00502A
   
   for sTDA-xTB:
   * S. Grimme and C. Bannwarth, J. Chem. Phys., 2016, 145, 054103.
     DOI: 10.1063/1.4959605
   
   in the mass-spec context:
   * V. Asgeirsson, C. Bauer and S. Grimme, Chem. Sci., 2017, 8, 4879.
     DOI: 10.1039/c7sc00601b
   * J. Koopman and S. Grimme, ACS Omega 2019, 4, 12, 15120-15133.
     DOI: 10.1021/acsomega.9b02011
   
   for metadynamics refer to:
   * S. Grimme, J. Chem. Theory Comput., 2019, 155, 2847-2862
     DOI: 10.1021/acs.jctc.9b00143
   
   for SPH calculations refer to:
   * S. Spicher and S. Grimme, J. Chem. Theory Comput., 2021, 17, 1701-1714
     DOI: 10.1021/acs.jctc.0c01306
   
   with help from (in alphabetical order)
   P. Atkinson, C. Bannwarth, F. Bohle, G. Brandenburg, E. Caldeweyher
   M. Checinski, S. Dohm, S. Ehlert, S. Ehrlich, I. Gerasimov, C. Hölzer
   A. Katbashev, J. Koopman, C. Lavigne, S. Lehtola, F. März, M. Müller,
   F. Musil, H. Neugebauer, J. Pisarek, C. Plett, P. Pracht, F. Pultar,
   J. Seibert, P. Shushkov, S. Spicher, M. Stahn, M. Steiner, T. Strunk,
   J. Stückrath, T. Rose, and J. Unsleber
   
 * started run on 2026/04/17 at 12:14:37.694     

           -------------------------------------------------
          |                Calculation Setup                |
           -------------------------------------------------

          program call               : /usr/bin/xtb random_d1.70_005_m3_XTB.xyz --grad -c 0 -u 2 -P 1 --namespace random_d1.70_005_m3 --input random_d1.70_005_m3_XTB.input.tmp --acc 0.200000
          calculation namespace      : random_d1.70_005_m3
          coordinate file            : random_d1.70_005_m3_XTB.xyz
          omp threads                :                     1

   ID    Z sym.   atoms
    1    5 B      1-12

molecular fragmentation (1/2 indicates fragments):
111222211222
# atoms in fragment 1/2:     5     7
 fragment masses (1/2) :       54.06       75.68
CMA distance (Bohr)    :   5.181
constraining FC (au)   :  0.0500

           -------------------------------------------------
          |                 G F N 2 - x T B                 |
           -------------------------------------------------

        Reference                      10.1021/acs.jctc.8b01176
      * Hamiltonian:
        H0-scaling (s, p, d)           1.850000    2.230000    2.230000
        zeta-weighting                 0.500000
      * Dispersion:
        s8                             2.700000
        a1                             0.520000
        a2                             5.000000
        s9                             5.000000
      * Repulsion:
        kExp                           1.500000    1.000000
        rExp                           1.000000
      * Coulomb:
        alpha                          2.000000
        third order                    shell-resolved
        anisotropic                    true
        a3                             3.000000
        a5                             4.000000
        cn-shift                       1.200000
        cn-exp                         4.000000
        max-rad                        5.000000

q/qsh data taken from xtbrestart
CAMM data taken from xtbrestart

          ...................................................
          :                      SETUP                      :
          :.................................................:
          :  # basis functions                  48          :
          :  # atomic orbitals                  48          :
          :  # shells                           24          :
          :  # electrons                        36          :
          :  max. iterations                   250          :
          :  Hamiltonian                  GFN2-xTB          :
          :  restarted?                       true          :
          :  GBSA solvation                  false          :
          :  PC potential                    false          :
          :  electronic temp.          300.0000000     K    :
          :  accuracy                    0.2000000          :
          :  -> integral cutoff          0.3198970E+02      :
          :  -> integral neglect         0.2000000E-08      :
          :  -> SCF convergence          0.2000000E-06 Eh   :
          :  -> wf. convergence          0.2000000E-04 e    :
          :  Broyden damping             0.4000000          :
          ...................................................

 iter      E             dE          RMSdq      gap      omega  full diag
   1    -13.4731175 -0.134731E+02  0.124E+00    0.17       0.0  T
   2    -13.1873677  0.285750E+00  0.373E+00    0.22       1.0  T
   3    -13.2846081 -0.972404E-01  0.295E+00    0.08       1.0  T
   4    -13.4456098 -0.161002E+00  0.136E+00    0.14       1.0  T
   5    -12.7816041  0.664006E+00  0.474E+00    0.06       1.0  T
   6    -13.3897632 -0.608159E+00  0.207E+00    0.20       1.0  T
   7    -13.3958408 -0.607764E-02  0.198E+00    0.20       1.0  T
   8    -13.4601952 -0.643544E-01  0.926E-01    0.21       1.0  T
   9    -13.4435648  0.166303E-01  0.124E+00    0.23       1.0  T
  10    -13.4733237 -0.297589E-01  0.576E-01    0.22       1.0  T
  11    -13.4748175 -0.149381E-02  0.565E-01    0.21       1.0  T
  12    -13.4746386  0.178927E-03  0.542E-01    0.23       1.0  T
  13    -13.4759197 -0.128113E-02  0.466E-01    0.23       1.0  T
  14    -13.4778865 -0.196672E-02  0.331E-01    0.22       1.0  T
  15    -13.4787567 -0.870266E-03  0.255E-01    0.22       1.0  T
  16    -13.4789671 -0.210383E-03  0.224E-01    0.22       1.0  T
  17    -13.4789845 -0.174103E-04  0.220E-01    0.22       1.0  T
  18    -13.4792347 -0.250152E-03  0.174E-01    0.22       1.0  T
  19    -13.4797060 -0.471373E-03  0.910E-02    0.22       1.0  T
  20    -13.4797500 -0.439873E-04  0.763E-02    0.22       1.0  T
  21    -13.4797003  0.497144E-04  0.973E-02    0.22       1.0  T
  22    -13.4798315 -0.131170E-03  0.111E-02    0.21       2.6  T
  23    -13.4798317 -0.229235E-06  0.860E-03    0.21       3.4  T
  24    -13.4798330 -0.127187E-05  0.488E-03    0.21       5.9  T
  25    -13.4798330 -0.573817E-07  0.403E-03    0.21       7.2  T
  26    -13.4798332 -0.157510E-06  0.247E-03    0.21      11.7  T
  27    -13.4798333 -0.116647E-06  0.929E-04    0.21      31.1  T
  28    -13.4798333 -0.668334E-08  0.408E-04    0.21      70.7  T
  29    -13.4798333  0.423009E-09  0.419E-04    0.21      68.9  T
  30    -13.4798333 -0.281999E-08  0.195E-04    0.21     148.0  T
  31    -13.4798333 -0.410765E-09  0.116E-04    0.21     248.7  T

   *** convergence criteria satisfied after 31 iterations ***

         #    Occupation            Energy/Eh            Energy/eV
      -------------------------------------------------------------
         1        2.0000           -0.4156854             -11.3114
       ...           ...                  ...                  ...
        13        2.0000           -0.2817706              -7.6674
        14        2.0000           -0.2787444              -7.5850
        15        2.0000           -0.2634710              -7.1694
        16        1.9978           -0.2565590              -6.9813
        17        1.8855           -0.2526798              -6.8758
        18        1.1148           -0.2487990              -6.7702
        19        0.9811           -0.2446368              -6.6569 (HOMO)
        20        0.0123           -0.2367973              -6.4436 (LUMO)
        21        0.0083           -0.2364228              -6.4334
        22        0.0001           -0.2323204              -6.3218
        23        0.0000           -0.2301910              -6.2638
        24                         -0.2242928              -6.1033
       ...                                ...                  ...
        48                          2.4258316              66.0102
[...]
        23                         -0.1920339              -5.2255
        24                         -0.1658415              -4.5128
       ...                                ...                  ...
        48                          1.4005941              38.1121
      -------------------------------------------------------------
                  HL-Gap            0.0069929 Eh            0.1903 eV
             Fermi-level           -0.2311765 Eh           -6.2906 eV

 transition dipole moment (au) for excitation:          18          19
     X       Y       Z   
   0.0200  -0.1196  -0.0156  total (au/Debye):    0.122   0.311
 dE (eV)             :    0.160
 oscillator strength :  0.82844E-04

 SCC (total)                   0 d,  0 h,  0 min,  0.038 sec
 SCC setup                      ...        0 min,  0.000 sec (  0.382%)
 Dispersion                     ...        0 min,  0.000 sec (  0.292%)
 classical contributions        ...        0 min,  0.000 sec (  0.087%)
 integral evaluation            ...        0 min,  0.003 sec (  7.316%)
 iterations                     ...        0 min,  0.025 sec ( 65.559%)
 molecular gradient             ...        0 min,  0.006 sec ( 16.078%)
 printout                       ...        0 min,  0.004 sec ( 10.237%)

         :::::::::::::::::::::::::::::::::::::::::::::::::::::
         ::                     SUMMARY                     ::
         :::::::::::::::::::::::::::::::::::::::::::::::::::::
         :: total energy             -14.033150066059 Eh    ::
         :: gradient norm              0.055652668155 Eh/a0 ::
         :: HOMO-LUMO gap              0.190285845789 eV    ::
         ::.................................................::
         :: SCC energy               -14.306460500939 Eh    ::
         :: -> isotropic ES            0.110630186210 Eh    ::
         :: -> anisotropic ES          0.001653056734 Eh    ::
         :: -> anisotropic XC         -0.041268396821 Eh    ::
         :: -> dispersion             -0.009443751838 Eh    ::
         :: repulsion energy           0.273403574983 Eh    ::
         :: add. restraining           0.000000000000 Eh    ::
         :: total charge              -0.000000000998 e     ::
         :::::::::::::::::::::::::::::::::::::::::::::::::::::


Property printout bound to 'properties.out'

           -------------------------------------------------
          | TOTAL ENERGY              -14.033150066059 Eh   |
          | GRADIENT NORM               0.055652668155 Eh/α |
          | HOMO-LUMO GAP               0.190285845789 eV   |
           -------------------------------------------------

------------------------------------------------------------------------
 * finished run on 2026/04/17 at 12:14:41.989     
------------------------------------------------------------------------
 total:
 * wall-time:     0 d,  0 h,  0 min,  0.059 sec
 *  cpu-time:     0 d,  0 h,  0 min,  0.058 sec
 * ratio c/w:     0.999 speedup
 SCF:
 * wall-time:     0 d,  0 h,  0 min,  0.038 sec
 *  cpu-time:     0 d,  0 h,  0 min,  0.038 sec
 * ratio c/w:     1.000 speedup


-------------------------   --------------------
FINAL SINGLE POINT ENERGY       -14.033150066060
-------------------------   --------------------


-------------
DIPOLE MOMENT
-------------
                                X             Y             Z
Total Dipole Moment    :     -0.09500      -0.66100       0.42000
                        -----------------------------------------
Magnitude (a.u.)       :      0.78889
Magnitude (Debye)      :      2.00520


------------------
CARTESIAN GRADIENT
------------------

   1   B   :   -0.001441125    0.000891394   -0.005456742
   2   B   :   -0.007174085   -0.000951224    0.005059735
   3   B   :    0.004276121   -0.000687531    0.002581861
   4   B   :    0.016499863   -0.006908954    0.008077744
   5   B   :    0.000170274   -0.005348791    0.008169850
   6   B   :   -0.000375269   -0.000873850   -0.001352469
   7   B   :    0.004530766   -0.001643038    0.001357554
   8   B   :    0.016627227   -0.006918863    0.010293216
   9   B   :   -0.030948155    0.016582897   -0.026223575
  10   B   :   -0.005038760    0.001793320    0.001031079
  11   B   :    0.000351594    0.003680594   -0.006560296
  12   B   :    0.002521549    0.000384045    0.003022043

Difference to translation invariance:
           :    0.0000000000   -0.0000000000   -0.0000000000

Difference to rotation invariance:
           :   -0.0000000224   -0.0000000127    0.0000000388

Norm of the Cartesian gradient     ...    0.0556526682
RMS gradient                       ...    0.0092754447
MAX gradient                       ...    0.0309481547
------------------------------------------------------------------------------
                         ORCA GEOMETRY RELAXATION STEP
------------------------------------------------------------------------------

Reading the OPT-File                    .... done
Getting information on internals        .... done
Copying old internal coords+grads       .... done
Making the new internal coordinates     .... (2022 redundants) done
Validating the new internal coordinates .... (2022 redundants) done
Calculating the B-matrix                .... done
Calculating the G,G- and P matrices     .... done
Transforming gradient to internals      .... done
Projecting the internal gradient        .... done
Number of atoms                         ....  12
Number of internal coordinates          ....  75
Current Energy                          ....   -14.033150066 Eh
Current gradient norm                   ....     0.055652668 Eh/bohr
Maximum allowed component of the step   ....  0.300
Current trust radius                    ....  0.207
Updating the Hessian (BFGS)             .... done
Forming the augmented Hessian           .... done
Diagonalizing the augmented Hessian     .... done
Last element of RFO vector              ....  0.846821965
Lowest eigenvalues of augmented Hessian:
 -0.004372124  0.000519267  0.001362015  0.002458578  0.004209174
Length of the computed step             ....  0.628085328
Warning: the length of the step is outside the trust region - taking restricted step instead
The input lambda is                     ....    -0.000909
   iter:   5  x=   -0.011129  g=   41.391041 f(x)=     0.178120
   iter:  10  x=   -0.024640  g=    2.307173 f(x)=     0.000011
The output lambda is                    ....    -0.024640 (12 iterations)
The final length of the internal step   ....  0.207407407
Converting the step to Cartesian space:
 Initial RMS(Int)=    0.0239493445
Transforming coordinates:
 Iter   0:  RMS(Cart)=    0.0593414309 RMS(Int)=    0.0233138336
 Iter   5:  RMS(Cart)=    0.0000105617 RMS(Int)=    0.0000178643
done
Storing new coordinates                 .... done
The predicted energy change is          ....    -0.001537277
Previously predicted energy change      ....    -0.001584821
Actually observed energy change         ....    -0.001428153
Ratio of predicted to observed change   ....     0.901144704
New trust radius                        ....     0.311111111

                                .--------------------.
          ----------------------|Geometry convergence|-------------------------
          Item                value                   Tolerance       Converged
          ---------------------------------------------------------------------
          Energy change      -0.0014281533            0.0000010000      NO
          RMS gradient        0.0017772094            0.0000300000      NO
          MAX gradient        0.0077184603            0.0001000000      NO
          RMS step            0.0239493445            0.0006000000      NO
          MAX step            0.0701562964            0.0010000000      NO
          -------------------------------------------------------------------------
          ........................................................
          Max(Bonds)      0.0240      Max(Angles)    4.02
          Max(Dihed)        3.51      Max(Improp)    0.00
          ---------------------------------------------------------------------

The optimization has not yet converged - more geometry cycles are needed


    ---------------------------------------------------------------------------
                         Redundant Internal Coordinates
                            (Angstroem and degrees)

        Definition                    Value    dE/dq     Step     New-Value
    ----------------------------------------------------------------------------
     1. B(B   1,B   0)                1.5255  0.001075 -0.0040    1.5215   
     2. B(B   2,B   0)                1.4366  0.004989 -0.0049    1.4318   
     3. B(B   3,B   1)                1.5098 -0.000882 -0.0027    1.5072   
     4. B(B   4,B   3)                1.5705 -0.000650  0.0024    1.5730   
     5. B(B   8,B   3)                1.6556 -0.001026 -0.0112    1.6445   
     6. B(B   8,B   4)                1.6404 -0.000659  0.0240    1.6644   
     7. B(B   8,B   1)                2.1183 -0.001743  0.0150    2.1333   
     8. B(B   8,B   7)                1.5058 -0.002143  0.0077    1.5135   
     9. B(B   9,B   6)                1.5138  0.005118 -0.0043    1.5095   
    10. B(B   9,B   5)                1.4287  0.000946 -0.0010    1.4278   
    11. B(B  10,B   6)                1.5396 -0.000149  0.0006    1.5401   
    12. B(B  10,B   4)                1.6548  0.002092 -0.0107    1.6440   
    13. B(B  11,B   8)                1.8130 -0.002120  0.0182    1.8312   
    14. B(B  11,B   7)                1.5344 -0.001868  0.0019    1.5364   
    15. A(B   1,B   0,B   2)          172.47 -0.001783    0.45    172.93   
    16. A(B   0,B   1,B   8)          143.09  0.001733   -0.71    142.38   
    17. A(B   3,B   1,B   8)           51.00  0.000105   -0.84     50.16   
    18. A(B   0,B   1,B   3)          162.95 -0.002024    1.51    164.46   
    19. A(B   4,B   3,B   8)           61.06  0.000078    1.16     62.22   
    20. A(B   1,B   3,B   8)           83.88 -0.000209    1.28     85.15   
    21. A(B   1,B   3,B   4)          144.92 -0.000136    2.49    147.41   
    22. A(B   8,B   4,B  10)          112.76  0.001884   -0.67    112.09   
    23. A(B   3,B   4,B   8)           62.03 -0.000135   -1.01     61.03   
    24. A(B   3,B   4,B  10)          174.63  0.001770   -0.78    173.86   
    25. A(B   9,B   6,B  10)          170.19 -0.004525   -0.63    169.57   
    26. A(B   8,B   7,B  11)           73.21  0.000117    0.55     73.76   
    27. A(B   4,B   8,B   7)          122.41  0.000201   -0.19    122.22   
    28. A(B   3,B   8,B   7)          177.14  0.000868    0.05    177.19   
    29. A(B   1,B   8,B   7)          135.40 -0.000291    0.75    136.15   
    30. A(B   7,B   8,B  11)           54.12  0.000013   -0.46     53.66   
    31. A(B   4,B   8,B  11)           68.34  0.000191    0.26     68.60   
    32. A(B   3,B   8,B   4)           56.91  0.000057   -0.15     56.76   
    33. A(B   1,B   8,B   4)          102.03  0.000159   -0.57    101.46   
    34. A(B   1,B   8,B   3)           45.13  0.000105   -0.44     44.69   
    35. A(B   3,B   8,B  11)          125.25  0.000260    0.18    125.43   
    36. A(B   5,B   9,B   6)          171.35 -0.003648    1.03    172.38   
    37. L(B   4,B  10,B   6,B   8, 2) 169.83  0.000696   -1.35    168.48   
    38. L(B   4,B  10,B   6,B   8, 1) 206.20 -0.007718    4.02    210.22   
    39. A(B   7,B  11,B   8)           52.67 -0.000130   -0.09     52.58   
    40. D(B   3,B   1,B   0,B   2)    107.42 -0.000157    1.29    108.71   
    41. D(B   8,B   1,B   0,B   2)   -112.50  0.000042   -0.13   -112.63   
    42. D(B   4,B   3,B   1,B   0)    148.87  0.001181   -1.03    147.84   
    43. D(B   4,B   3,B   1,B   8)     -1.40 -0.000321    0.84     -0.56   
    44. D(B   8,B   3,B   1,B   0)    150.27  0.001502   -1.87    148.40   
    45. D(B   8,B   4,B   3,B   1)      1.59  0.000363   -0.96      0.63   
    46. D(B  10,B   4,B   3,B   1)    -12.53 -0.000907    1.18    -11.35   
    47. D(B  10,B   4,B   3,B   8)    -14.12 -0.001271    2.14    -11.98   
    48. D(B   9,B   6,B   4,B   8)    153.66 -0.002611    0.66    154.32   
    49. D(B   9,B   6,B   4,B   3)    -30.70  0.002670   -3.51    -34.21   
    50. D(B   7,B   8,B   1,B   0)     10.03  0.002782   -2.95      7.08   
    51. D(B   4,B   8,B   1,B   3)      0.79  0.000184   -0.58      0.20   
    52. D(B  11,B   8,B   4,B  10)     -0.73 -0.000751    1.22      0.49   
    53. D(B   7,B   8,B   1,B   3)    176.02  0.001216   -2.37    173.64   
    54. D(B   7,B   8,B   4,B   3)   -176.70 -0.000984    2.05   -174.65   
    55. D(B   3,B   8,B   4,B  10)    178.58  0.000322   -0.58    178.00   
    56. D(B   4,B   8,B   1,B   0)   -165.20  0.001750   -1.16   -166.36   
    57. D(B   3,B   8,B   1,B   0)   -165.99  0.001566   -0.58   -166.56   
    58. D(B  11,B   8,B   3,B   4)      0.78 -0.001217    2.12      2.91   
    59. D(B  11,B   8,B   3,B   1)   -178.30 -0.001004    1.47   -176.83   
    60. D(B   1,B   8,B   4,B   3)     -0.67 -0.000156    0.51     -0.16   
    61. D(B   1,B   8,B   4,B  10)    177.91  0.000166   -0.08    177.84   
    62. D(B   7,B   8,B   3,B   4)     77.10  0.000782   -1.67     75.43   
    63. D(B   7,B   8,B   3,B   1)   -101.98  0.000995   -2.33   -104.31   
    64. D(B   7,B   8,B   4,B  10)      1.88 -0.000663    1.46      3.35   
    65. D(B  11,B   8,B   4,B   3)   -179.31 -0.001072    1.80   -177.51   
    66. D(B   4,B   8,B   3,B   1)   -179.08  0.000213   -0.66   -179.74   
    67. D(B   1,B   8,B   7,B  11)   -177.47 -0.001292    1.79   -175.68   
    68. D(B   3,B   8,B   7,B  11)    -78.31 -0.001416    2.50    -75.82   
    69. D(B   4,B   8,B   7,B  11)     -3.00 -0.000104   -0.28     -3.28   
    70. D(B   1,B   8,B   3,B   4)    179.08 -0.000213    0.66    179.74   
    71. D(B   5,B   9,B   6,B  10)    -96.17 -0.000045   -1.52    -97.69   
    72. D(B   7,B  11,B   8,B   4)    177.28 -0.000085   -0.26    177.01   
    73. D(B   7,B  11,B   8,B   3)    176.57  0.001012   -2.17    174.40   
    74. D(B   7,B  11,B   1,B   3)    178.91 -0.000308   -0.27    178.63   
    75. D(B   7,B  11,B   1,B   0)     14.91  0.001324   -0.57     14.33   
    ----------------------------------------------------------------------------

Geometry step timings:
Preparation and reading OPT file:      0.000 s ( 0.982 %)
Internal coordinates            :      0.000 s ( 1.185 %)
B/P matrices and projection     :      0.001 s (19.590 %)
Hessian update/contruction      :      0.000 s (14.187 %)
Making the step                 :      0.001 s (38.110 %)
Converting the step to Cartesian:      0.000 s ( 3.381 %)
Storing new data                :      0.000 s ( 2.023 %)
Checking convergence            :      0.000 s ( 1.965 %)
Final printing                  :      0.001 s (18.521 %)
Total time                      :      0.003 s

Time for energy+gradient        :      0.078 s
Time for complete geometry iter :      0.083 s




    ----------------------------------------------------------------------------
                                  WARNING !!!
       The optimization did not converge but reached the maximum number of
       optimization cycles.
       Please check your results very carefully.
    ----------------------------------------------------------------------------



--------------------------------
SUGGESTED CITATIONS FOR THIS RUN
--------------------------------

Below you find a list of papers that are relevant to this ORCA run
We neither can nor want to force you to cite these papers, but we appreciate if you do
You receive ORCA, which is the product of decades of hard work by many enthusiastic individuals, for free
The only thing we kindly ask in return is that you cite our papers,
We deeply appreciate it, if you show your appreciation for ORCA by not just citing the generic ORCA reference.

Please note that relegating all ORCA citations to the supporting information does *not* help us.
SI sections are not indexed - citations you put there will not count into any citation statistics
But we need these citations in order to attract the funding resources that allow us to do what we are doing

Therefore, if you are a happy ORCA user, please consider citing a few of the papers listed below in the main body of your paper

In addition to the list printed below, the program has created the file random_d1.70_005_m3.bibtex that contains the list in bibtex format
You can import this file easily into all common literature databanks and citation aid programs

It goes without saying that in many instances, there are alternative algorithms to achieve similar
results as the ones you have gotten from ORCA. It is, of course, also the case that in some instances
ORCA just re-implements algorithms worked out by others. We are fully aware of that and we are also
fully appreciative of our colleagues work. Hence this citation list should not be read as indicating
that the listed papers, which are focused on our own work, are the only ones worth citing. It simply
meant to make it easier for users to cite ORCA specific papers. It is not a substitute for doing your
own literature research and citing the relevant literature in a scientifically appropriate manner.

List of essential papers. We consider these as the minimum necessary citations

  1. Bannwarth, C.; Ehlert, S.; Grimme, S.
     GFN2-xTB—An Accurate and Broadly Parametrized Self-Consistent Tight-Binding Quantum Chemical Method with Multipole Electrostatics and Density-Dependent Dispersion Contributions
     J. Chem. Theory Comput. 2019 15(3), 1652-1671
     doi.org/10.1021/acs.jctc.8b01176
  2. Neese, F.
     Software update: the ORCA program system, version 6.0
     WIRES Comput. Molec. Sci. 2025 15(1), e70019
     doi.org/10.1002/wcms.70019

List of papers to cite with high priority. The work reported in these papers was absolutely
necessary for this run to complete.
Our perspective: the developers of density functionals and basis sets usually get cited in chemistry papers
Good! But without the algorithms to do something with them, the functionals or basis sets would not do anything.
Hence, in our opinion, the algorithm design and method developments papers are equally worthy of getting cited

  1. Bannwarth, C.; Caldeweyher, E.; Ehlert, S.; Hansen, A.; Pracht, P.; Seibert, J.; Spicher, S.; Grimme, S.
     Extended tight-binding quantum chemistry methods
     WIRES Comput. Molec. Sci. 2020 11(2), e1493
     doi.org/10.1002/wcms.1493

List of suggested additional citations. These are papers that are important in the 'surrounding' of 
of this run, or papers that preceded the highly important papers. If you like your results we are grateful for a citation.

  1. Neese, F.
     The ORCA program system
     WIRES Comput. Molec. Sci. 2012 2(1), 73-78
     doi.org/10.1002/wcms.81
  2. Neese, F.
     Software update: the ORCA program system, version 4.0
     WIRES Comput. Molec. Sci. 2018 8(1), 1-6
     doi.org/10.1002/wcms.1327
  3. Neese, F.; Wennmohs, F.; Becker, U.; Riplinger, C.
     The ORCA quantum chemistry program package
     J. Chem. Phys. 2020 152(22), 224108
     doi.org/10.1063/5.0004608
  4. Neese, F.
     Software update: The ORCA program system—Version 5.0
     WIRES Comput. Molec. Sci. 2022 12(1), e1606
     doi.org/10.1002/wcms.1606

List of optional additional citations

  1. Neese, F.
     Approximate second-order SCF convergence for spin unrestricted wavefunctions
     Chem. Phys. Lett. 2000 325(1-3), 93-98
     doi.org/10.1016/s0009-2614(00)00662-x

Timings for individual modules:

Sum of individual times          ...        4.097 sec (=   0.068 min)
Geometry relaxation              ...        0.763 sec (=   0.013 min)  18.6 %
XTB module                       ...        3.333 sec (=   0.056 min)  81.4 %
                             ****ORCA TERMINATED NORMALLY****
TOTAL RUN TIME: 0 days 0 hours 0 minutes 4 seconds 653 msec
