
                                 *****************
                                 * O   R   C   A *
                                 *****************

                                            #,                                       
                                            ###                                      
                                            ####                                     
                                            #####                                    
                                            ######                                   
                                           ########,                                 
                                     ,,################,,,,,                         
                               ,,#################################,,                 
                          ,,##########################################,,             
                       ,#########################################, ''#####,          
                    ,#############################################,,   '####,        
                  ,##################################################,,,,####,       
                ,###########''''           ''''###############################       
              ,#####''   ,,,,##########,,,,          '''####'''          '####       
            ,##' ,,,,###########################,,,                        '##       
           ' ,,###''''                  '''############,,,                           
         ,,##''                                '''############,,,,        ,,,,,,###''
      ,#''                                            '''#######################'''  
     '                                                          ''''####''''         
             ,#######,   #######,   ,#######,      ##                                
            ,#'     '#,  ##    ##  ,#'     '#,    #''#        ,####,    ,#,          
            ##       ##  ##   ,#'  ##            #'  '#       #'       ,# #          
            ##       ##  #######   ##           ,######,      #####,      #          
            '#,     ,#'  ##    ##  '#,     ,#' ,#      #,     #,   #      #          
             '#######'   ##     ##  '#######'  #'      '#     '####' #    #          



                #########################################################
                #                        -***-                          #
                #          Department of theory and spectroscopy        #
                #                                                       #
                #                      Frank Neese                      #
                #                                                       #
                #     Directorship, Architecture, Infrastructure        #
                #                    SHARK, DRIVERS                     #
                #        Core code/Algorithms in most modules           #
                #                                                       #
                #        Max Planck Institute fuer Kohlenforschung      #
                #                Kaiser Wilhelm Platz 1                 #
                #                 D-45470 Muelheim/Ruhr                 #
                #                      Germany                          #
                #                                                       #
                #                  All rights reserved                  #
                #                        -***-                          #
                #########################################################


                         Program Version 6.1.1  -  RELEASE   -
                                (GIT: $487d211c$)
                          ($2025-11-21 10:33:24 +0100$)
                                                                         
                                  - NO-DMRG VERSION -                    
                                                                         


 With contributions from (in alphabetic order):
[Max-Planck-Institut fuer Kohlenforschung]                               
  Daniel Aravena         : Magnetic Suceptibility                        
  Michael Atanasov       : Ab Initio Ligand Field Theory (pilot matlab implementation)
  Alexander A. Auer      : GIAO ZORA, VPT2 properties, NMR spectrum      
  Ute Becker             : All parallelization in ORCA, NUMFREQ, NUMCALC 
  Giovanni Bistoni       : ED, misc. LED, open-shell LED, HFLD           
  Dmytro Bykov           : pre 5.0 version of the SCF Hessian            
  Marcos Casanova-Páez   : Triplet and SCS-CIS(D). UHF-(DLPNO)-IP/EA/STEOM-CCSD. UHF-CVS-IP/STEOM-CCSD   
  Vijay G. Chilkuri      : MRCI spin determinant printing, contributions to CSF-ICE 
  Pauline Colinet        : FMM embedding                                 
  Dipayan Datta          : RHF DLPNO-CCSD density                        
  Achintya Kumar Dutta   : EOM-CC, STEOM-CC                              
  Nicolas Foglia         : Exact transition moments, OPA infrastructure, MCD improvements    
  Dmitry Ganyushin       : Spin-Orbit,Spin-Spin,Magnetic field MRCI      
  Miquel Garcia-Rates    : C-PCM and meta-GGA Hessian, CCSD/C-PCM, Gaussian charge scheme 
  Tiago L. C. Gouveia    : GS-ROHF, GS-ROCIS                             
  Yang Guo               : DLPNO-NEVPT2, F12-NEVPT2, CIM, IAO-localization        
  Andreas Hansen         : Spin unrestricted coupled pair/coupled cluster methods 
  Ingolf Harden          : AUTO-CI MPn and infrastructure                
  Benjamin Helmich-Paris : MC-RPA, TRAH-(SCF,CASSCF), AVAS, COSX integrals, SCF dyn. polar., MC-PDFT, srDFT 
  Lee Huntington         : MR-EOM, pCC                                   
  Robert Izsak           : Overlap fitted RIJCOSX, COSX-SCS-MP3, EOM     
  Riya Kayal             : Wick's Theorem for AUTO-CI, AUTO-CI UHF-CCSDT 
  Emily Kempfer          : AUTO-CI RHF CISDT and CCSDT, approximate NEVPT4
  Christian Kollmar      : KDIIS, OOCD, Brueckner-CCSD(T), CCSD density, CASPT2, CASPT2-K, improved NEVPT2 
  Axel Koslowski         : Symmetry handling                             
  Simone Kossmann        : meta-GGA functionals, TD-DFT gradient, OOMP2, (MP2 Hessian; deprecated post 5.0) 
  Lucas Lang             : DCDCAS, Hyperfine gauge corrections, ICE-SOC+SSC
  Marvin Lechner         : AUTO-CI (C++ implementation), FIC-MRCC        
  Spencer Leger          : CASSCF response                               
  Dagmar Lenk            : GEPOL surface, SMD, ORCA-2-JSON               
  Dimitrios Liakos       : Extrapolation schemes; Compound Job, Property file
  Dimitrios Manganas     : Further ROCIS development; embedding schemes. LFT, Crystal Embedding 
  Dimitrios Pantazis     : SARC Basis sets                               
  Anastasios Papadopoulos: AUTO-CI, single reference methods and gradients 
  Taras Petrenko         : pre 6.0 DFT Hessian and TD-DFT gradient,  ECA, NRVS 
  Petra Pikulova         : Analytic Raman intensities                    
  Peter Pinski           : DLPNO-MP2, DLPNO-MP2 Gradient                 
  Shashank Vittal Rao    : ES-AILFT, MagRelax                            
  Christoph Reimann      : Effective Core Potentials                     
  Marius Retegan         : Local ZFS, SOC                                
  Christoph Riplinger    : Optimizer, TS searches, QM/MM, DLPNO-CCSD(T), (RO)-DLPNO pert. Triples 
  Michael Roemelt        : Original ROCIS implementation, recursive CI coupling coefficients
  Masaaki Saitow         : Open-shell DLPNO-CCSD energy and density      
  Barbara Sandhoefer     : DKH picture change effects                    
  Yorick L. A. Schmerwitz: GMF and freeze-and-release deltaSCF, NEB S-IDPP initial path                    
  Kantharuban Sivalingam : CASSCF convergence/infrastructure, NEVPT2, NEVPT3, NEVPT4(SD), FIC-MRCI and CEPA variants
  Bernardo de Souza      : ESD, SOC TD-DFT                               
  Georgi L. Stoychev     : AutoAux, RI-MP2 NMR, DLPNO-MP2 response, X2C  
  Van Anh Tran           : RI-MP2 g-tensors                              
  Willem Van den Heuvel  : Paramagnetic NMR                              
  Zikuan Wang            : NOTCH, Electric field optimization            
  Frank Wennmohs         : Technical directorship and infrastructure     
  Hang Xu                : AUTO-CI-Response properties                   
                                                                         
[FACCTs GmbH]                                                            
  Markus Bursch, Nicolas Foglia, Miquel Garcia-Rates, Ingolf Harden, Hagen Neugebauer, Anastasios Papadopoulos, 
  Christoph Riplinger, Bernardo de Souza, Georgi L. Stoychev                                                    
                                                                 
  APM, various basis sets, CI-OPT, improved COSX, DLPNO-Multilevel,           
  DOCKER, DRACO, updates on ESD, Fragmentator, GOAT, IRC, LR-CPCM, L-BFGS, MBIS, meta-GGA TD-DFT gradient, ML-optimized integration grids, 
  MM, NACMEs, nearIR, NEB, NEB-TS, NL-DFT gradient (VV10), 2- and 3-layer-ONIOM, interface openCOSMO-RS, QMMM,   
  Crystal-QMMM, RESP, rigid body optimization, SF, symmetry and pop. for TD-DFT, various functionals, SOLVATOR                                   
                                                                         
[Other institutions]                                                     
  V. Asgeirsson          : NEB                                           
  Christoph Bannwarth    : sTDA-DFT, sTD-DFT, PBEh-3c, B97-3c, D3        
  Giovanni Bistoni       : ETS/NOCV, ADLD/ADEX, COVALED                  
  Martin Brehm           : Molecular dynamics                            
  Ronald Cardenas        : ETS/NOCV                                      
  Martina Colucci        : COVALED                                       
  Sebastian Ehlert       : rSCAN, r2SCAN, r2SCAN-3c, D4, dhf basis sets  
  Marvin Friede          : D4 for Fr, Ra, Ac-Lr                          
  Lars Goerigk           : TD-DFT with DH, B97 family of functionals     
  Stefan Grimme          : VdW corrections, initial TS optimization, DFT functionals, gCP, sTDA/sTD-DF 
  Waldemar Hujo          : DFT-NL                                        
  H. Jonsson             : NEB                                           
  Holger Kruse           : gCP                                           
  Marcel Mueller         : wB97X-3c, vDZP basis set                      
  Hagen Neugebauer       : wr2SCAN, Native XTB                           
  Gianluca Regni         : ADLD/ADEX                                     
  Tobias Risthaus        : pre 6.0 range-separated hybrid DFT and stability analysis
  Lukas Wittmann         : regularized MP2, r2SCAN double-hybrids, wr2SCAN        
                                                                         
We gratefully acknowledge several colleagues who have allowed us to      
interface, adapt or use parts of their codes:                            
  Ed Valeev, F. Pavosevic, A. Kumar             : LibInt (2-el integral package), F12 methods 
  Garnet Chan, S. Sharma, J. Yang, R. Olivares  : DMRG                   
  Ulf Ekstrom                                   : XCFun DFT Library      
  Mihaly Kallay                                 : mrcc  (arbitrary order and MRCC methods)
  Frank Weinhold                                : gennbo (NPA and NBO analysis)           
  Simon Mueller                                 : openCOSMO-RS                            
  Christopher J. Cramer and Donald G. Truhlar   : smd solvation model                     
  S Lehtola, MJT Oliveira, MAL Marques          : LibXC Library                           
  Liviu Ungur et al                             : ANISO software                          


 Your calculation uses the libint2 library for the computation of 2-el integrals
 For citations please refer to: http://libint.valeyev.net

 Your ORCA version has been built with support for libXC version: 7.0.0
 For citations please refer to: https://libxc.gitlab.io

 This ORCA versions uses:
   CBLAS   interface :  Fast vector & matrix operations
   LAPACKE interface :  Fast linear algebra routines
   SCALAPACK package :  Parallel linear algebra routines
   Shared memory     :  Shared parallel matrices
   BLAS/LAPACK       :  OpenBLAS 0.3.29  USE64BITINT DYNAMIC_ARCH NO_AFFINITY Zen SINGLE_THREADED
        Core in use  :  Zen
   Copyright (c) 2011-2014, The OpenBLAS Project


  ***********************************
  * Starting time: Fri Apr 17 12:14:43 2026
  * Host name:     vmi3233575
  * Process ID:    338621
  * Working dir.:  /root/orca_b12_vps_pack/jobs/01_xtb/mult_3
  ***********************************

NOTE: MaxCore=500 MB was set to SCF,MP2,MDCI,CIPSI,MRCI,RASCI and CIS
      => If you want to overwrite this, your respective input block should be placed after the MaxCore statement


***************************************
The coordinates will be read from file: ../../../starts/random_d1.90_003.xyz
***************************************


Your calculation utilizes the semiempirical GFN2-xTB method
Please cite in your paper:
Bannwarth, C.; Ehlert S.; Grimme, S. J. Chem. Theory Comput. 2019, 15, 1652.
   

================================================================================

================================================================================
                                        WARNINGS
                       Please study these warnings very carefully!
================================================================================


WARNING: Geometry Optimization
  ===> : Switching off AutoStart
         For restart on a previous wavefunction, please use MOREAD

WARNING: Found dipole moment calculation with XTB calculation
  ===> : Switching off dipole moment calculation

Environment variable XTBEXE for xtb has been set!

================================================================================
                                       INPUT FILE
================================================================================
NAME = random_d1.90_003_m3.inp
|  1> ! GFN2-xTB TightSCF TightOpt
|  2> 
|  3> %pal
|  4>   nprocs 1
|  5> end
|  6> 
|  7> %maxcore 500
|  8> 
|  9> * xyzfile 0 3 ../../../starts/random_d1.90_003.xyz
| 10> 
| 11>                          ****END OF INPUT****
================================================================================

                       *****************************
                       * Geometry Optimization Run *
                       *****************************

Geometry optimization settings:
Update method            Update   .... BFGS
Choice of coordinates    CoordSys .... (2022) Redundant Internals
Initial Hessian          InHess   .... Almloef's Model
Max. no of cycles        MaxIter  .... 50

Convergence Tolerances:
Energy Change            TolE     ....  1.0000e-06 Eh
Max. Gradient            TolMAXG  ....  1.0000e-04 Eh/bohr
RMS Gradient             TolRMSG  ....  3.0000e-05 Eh/bohr
Max. Displacement        TolMAXD  ....  1.0000e-03 bohr
RMS Displacement         TolRMSD  ....  6.0000e-04 bohr
Strict Convergence                .... False

------------------------------------------------------------------------------
                        ORCA OPTIMIZATION COORDINATE SETUP
------------------------------------------------------------------------------

The optimization will be done in redundant internal coordinates (2022)
Making redundant internal coordinates   ...  (2022 redundants) done
Evaluating the initial hessian          ...  (Almloef) done
Evaluating the coordinates              ...  done
Calculating the B-matrix                .... done
Calculating the G-matrix                .... done
The number of degrees of freedom        ....  209

    -----------------------------------------------------------------
                    Redundant Internal Coordinates


    -----------------------------------------------------------------
         Definition                    Initial Value    Approx d2E/dq
    -----------------------------------------------------------------
      1. B(B   3,B   0)                  3.8296         0.010000   
      2. B(B   3,B   2)                  1.6436         0.330154   
      3. B(B   4,B   1)                  1.9593         0.103543   
      4. B(B   5,B   4)                  3.5607         0.010000   
      5. B(B   5,B   0)                  2.9593         0.010000   
      6. B(B   6,B   3)                  3.8523         0.010000   
      7. B(B   6,B   2)                  4.0668         0.010000   
      8. B(B   7,B   1)                  1.3073         1.135832   
      9. B(B   7,B   4)                  1.9158         0.121469   
     10. B(B   8,B   1)                  3.6411         0.010000   
     11. B(B   8,B   7)                  2.8293         0.010000   
     12. B(B   8,B   3)                  2.5530         0.011691   
     13. B(B   9,B   6)                  1.2389         1.460562   
     14. B(B  10,B   2)                  3.6912         0.010000   
     15. B(B  10,B   3)                  3.4245         0.010000   
     16. B(B  10,B   6)                  1.9048         0.126491   
     17. B(B  10,B   5)                  1.6057         0.379493   
     18. B(B  10,B   0)                  2.6848         0.010000   
     19. B(B  11,B   3)                  3.3463         0.010000   
     20. B(B  11,B   2)                  3.2117         0.010000   
     21. B(B  11,B   9)                  1.3745         0.887279   
     22. B(B  11,B   6)                  1.5153         0.529027   
     23. A(B   5,B   0,B  10)           32.5971         0.127144   
     24. A(B   3,B   0,B   5)           85.1066         0.103725   
     25. A(B   3,B   0,B  10)           60.4327         0.107499   
     26. A(B   4,B   1,B   8)           97.1761         0.128557   
     27. A(B   7,B   1,B   8)           43.0077         0.157024   
     28. A(B   4,B   1,B   7)           68.5003         0.364398   
     29. A(B   3,B   2,B   6)           70.7834         0.125097   
     30. A(B  10,B   2,B  11)           47.4704         0.102392   
     31. A(B   6,B   2,B  11)           19.9325         0.098800   
     32. A(B   3,B   2,B  11)           80.0788         0.162494   
     33. A(B   6,B   2,B  10)           27.8896         0.095578   
     34. A(B   3,B   2,B  10)           67.7237         0.138328   
     35. A(B   6,B   3,B   8)          124.7590         0.109255   
     36. A(B   8,B   3,B  10)          126.0224         0.117909   
     37. A(B   8,B   3,B  11)          132.3789         0.119852   
     38. A(B   0,B   3,B  11)           90.3601         0.099673   
     39. A(B  10,B   3,B  11)           49.0797         0.103948   
     40. A(B   2,B   3,B  10)           85.9075         0.150578   
     41. A(B   6,B   3,B  11)           22.9460         0.099473   
     42. A(B   6,B   3,B  10)           29.6084         0.098814   
     43. A(B   0,B   3,B   6)           67.9514         0.096008   
     44. A(B   2,B   3,B   6)           85.4578         0.132144   
     45. A(B   0,B   3,B  10)           42.9939         0.099002   
     46. A(B   2,B   3,B  11)           70.9848         0.154714   
     47. A(B   0,B   3,B   2)          113.3988         0.132968   
     48. A(B   0,B   3,B   8)           91.2305         0.109642   
     49. A(B   2,B   3,B   8)          147.5177         0.216089   
     50. A(B   1,B   4,B   5)          121.5365         0.131290   
     51. A(B   5,B   4,B   7)          128.1106         0.132846   
     52. A(B   1,B   4,B   7)           39.4120         0.255043   
     53. A(B   4,B   5,B  10)           99.8783         0.145742   
     54. A(B   0,B   5,B   4)           70.8060         0.107414   
     55. A(B   0,B   5,B  10)           64.2606         0.182563   
     56. A(B  10,B   6,B  11)          110.1483         0.331399   
     57. A(B   2,B   6,B   3)           23.7589         0.094753   
     58. A(B   9,B   6,B  11)           58.8600         0.510703   
     59. A(B   2,B   6,B  10)           65.0224         0.118051   
     60. A(B   2,B   6,B   9)          105.0663         0.139540   
     61. A(B   3,B   6,B  11)           59.4230         0.137003   
     62. A(B   2,B   6,B  11)           46.2674         0.129162   
     63. A(B   3,B   6,B  10)           62.6535         0.123723   
     64. A(B   3,B   6,B   9)          114.9239         0.149408   
     65. A(B   9,B   6,B  10)          161.5243         0.394039   
     66. A(B   1,B   7,B   8)          118.6211         0.222598   
     67. A(B   1,B   7,B   4)           72.0877         0.374533   
     68. A(B   4,B   7,B   8)          131.6411         0.169549   
     69. A(B   3,B   8,B   7)           94.1152         0.136421   
     70. A(B   1,B   8,B   7)           18.3712         0.108190   
     71. A(B   1,B   8,B   3)           84.6986         0.113145   
     72. A(B   6,B   9,B  11)           70.6582         0.563065   
     73. A(B   2,B  10,B   3)           26.3688         0.100221   
     74. A(B   0,B  10,B   2)           94.4359         0.109754   
     75. A(B   2,B  10,B   6)           87.0880         0.128700   
     76. A(B   2,B  10,B   5)          154.3937         0.139908   
     77. A(B   0,B  10,B   3)           76.5734         0.114908   
     78. A(B   3,B  10,B   6)           87.7381         0.138558   
     79. A(B   3,B  10,B   5)          130.7866         0.152550   
     80. A(B   0,B  10,B   6)          137.9347         0.180664   
     81. A(B   0,B  10,B   5)           83.1423         0.206543   
     82. A(B   5,B  10,B   6)           78.1758         0.313842   
     83. A(B   2,B  11,B   6)          113.8000         0.170771   
     84. A(B   2,B  11,B   3)           28.9364         0.106841   
     85. A(B   3,B  11,B   9)          142.6277         0.171193   
     86. A(B   3,B  11,B   6)           97.6311         0.162115   
     87. A(B   6,B  11,B   9)           50.4818         0.465715   
     88. A(B   2,B  11,B   9)          164.0350         0.180924   
     89. D(B  11,B   3,B   2,B   6)    -18.2473         0.010000   
     90. D(B  10,B   3,B   2,B   6)     29.6912         0.010000   
     91. D(B   6,B   3,B   0,B  10)     19.7550         0.010000   
     92. D(B   0,B   3,B   2,B  11)     81.8434         0.010000   
     93. D(B  10,B   3,B   2,B  11)     47.9385         0.010000   
     94. D(B   0,B   3,B   2,B  10)     33.9049         0.010000   
     95. D(B   6,B   3,B   2,B  11)     18.2473         0.010000   
     96. D(B   0,B   3,B   2,B   6)     63.5961         0.010000   
     97. D(B   2,B   3,B   0,B   5)    -77.2223         0.010000   
     98. D(B  10,B   3,B   0,B   5)    -22.5437         0.010000   
     99. D(B   6,B   3,B   0,B   5)     -2.7887         0.010000   
    100. D(B  11,B   3,B   2,B  10)    -47.9385         0.010000   
    101. D(B  11,B   3,B   0,B   5)     -7.8505         0.010000   
    102. D(B   2,B   3,B   0,B  10)    -54.6787         0.010000   
    103. D(B  11,B   3,B   0,B  10)     14.6932         0.010000   
    104. D(B   7,B   4,B   1,B   8)     32.6748         0.010000   
    105. D(B   5,B   4,B   1,B   8)    -80.5147         0.010000   
    106. D(B   5,B   4,B   1,B   7)   -113.1894         0.010000   
    107. D(B   0,B   5,B   4,B   7)     57.5006         0.010000   
    108. D(B  10,B   5,B   4,B   1)     47.2072         0.010000   
    109. D(B   4,B   5,B   0,B   3)    -73.4430         0.010000   
    110. D(B   4,B   5,B   0,B  10)   -111.6846         0.010000   
    111. D(B   0,B   5,B   4,B   1)    105.3785         0.010000   
    112. D(B  10,B   5,B   4,B   7)     -0.6706         0.010000   
    113. D(B  10,B   5,B   0,B   3)     38.2416         0.010000   
    114. D(B  11,B   6,B   2,B   3)    115.2125         0.010000   
    115. D(B   9,B   6,B   2,B   3)    118.1443         0.010000   
    116. D(B   9,B   6,B   2,B  11)      2.9318         0.010000   
    117. D(B  10,B   6,B   2,B  11)    166.3007         0.010000   
    118. D(B  10,B   6,B   2,B   3)    -78.4868         0.010000   
    119. D(B  10,B   6,B   3,B  11)    139.1123         0.010000   
    120. D(B  10,B   6,B   3,B   0)    -27.8080         0.010000   
    121. D(B  10,B   6,B   3,B   2)     89.7076         0.010000   
    122. D(B   9,B   6,B   3,B   8)     97.2648         0.010000   
    123. D(B   9,B   6,B   3,B   0)    172.6180         0.010000   
    124. D(B   9,B   6,B   3,B  10)   -159.5741         0.010000   
    125. D(B   9,B   6,B   3,B  11)    -20.4618         0.010000   
    126. D(B   9,B   6,B   3,B   2)    -69.8665         0.010000   
    127. D(B  11,B   6,B   2,B  10)   -166.3007         0.010000   
    128. D(B   9,B   6,B   2,B  10)   -163.3689         0.010000   
    129. D(B  10,B   6,B   3,B   8)   -103.1611         0.010000   
    130. D(B   1,B   7,B   4,B   5)     95.3073         0.010000   
    131. D(B   8,B   7,B   1,B   4)    128.2529         0.065521   
    132. D(B   4,B   7,B   1,B   8)   -128.2529         0.065521   
    133. D(B   8,B   7,B   4,B   5)    -17.4133         0.010000   
    134. D(B   8,B   7,B   4,B   1)   -112.7206         0.010000   
    135. D(B   1,B   8,B   7,B   4)     90.9369         0.010000   
    136. D(B   1,B   8,B   3,B  11)     16.1346         0.010000   
    137. D(B   7,B   8,B   3,B   6)      4.0769         0.010000   
    138. D(B   7,B   8,B   3,B   0)    -59.6833         0.010000   
    139. D(B   7,B   8,B   3,B  10)    -32.4236         0.010000   
    140. D(B   3,B   8,B   7,B   4)     31.6382         0.010000   
    141. D(B   3,B   8,B   7,B   1)    -59.2987         0.010000   
    142. D(B   1,B   8,B   3,B   2)    143.8646         0.010000   
    143. D(B   7,B   8,B   3,B  11)     31.9275         0.010000   
    144. D(B   7,B   8,B   3,B   2)    159.6575         0.010000   
    145. D(B   7,B   8,B   1,B   4)    -47.4268         0.010000   
    146. D(B   3,B   8,B   1,B   7)    120.5362         0.010000   
    147. D(B   3,B   8,B   1,B   4)     73.1094         0.010000   
    148. D(B  11,B   9,B   6,B   2)     -2.4748         0.126816   
    149. D(B  11,B   9,B   6,B   3)     20.5877         0.126816   
    150. D(B  11,B   9,B   6,B  10)    -57.4276         0.126816   
    151. D(B   5,B  10,B   0,B   3)   -134.8416         0.010000   
    152. D(B   0,B  10,B   6,B   2)     93.3955         0.010000   
    153. D(B   0,B  10,B   6,B   3)     67.0072         0.010000   
    154. D(B   0,B  10,B   6,B  11)    103.8980         0.010000   
    155. D(B   5,B  10,B   6,B   2)    158.9353         0.010000   
    156. D(B   5,B  10,B   6,B   3)    132.5470         0.010000   
    157. D(B   5,B  10,B   6,B  11)    169.4378         0.010000   
    158. D(B   2,B  10,B   5,B   0)    -85.9464         0.010000   
    159. D(B   3,B  10,B   5,B   4)     -2.6570         0.010000   
    160. D(B   3,B  10,B   5,B   0)    -65.6288         0.010000   
    161. D(B   6,B  10,B   5,B   4)    -79.1315         0.010000   
    162. D(B   6,B  10,B   5,B   0)   -142.1033         0.010000   
    163. D(B   6,B  10,B   3,B   8)     98.4642         0.010000   
    164. D(B   6,B  10,B   3,B   0)    140.6482         0.010000   
    165. D(B   6,B  10,B   3,B  11)    -19.7386         0.010000   
    166. D(B   6,B  10,B   3,B   2)    -88.0061         0.010000   
    167. D(B   5,B  10,B   3,B   8)     26.2176         0.010000   
    168. D(B   5,B  10,B   3,B   6)    -72.2465         0.010000   
    169. D(B   5,B  10,B   3,B   0)     68.4016         0.010000   
    170. D(B   5,B  10,B   3,B  11)    -91.9852         0.010000   
    171. D(B   5,B  10,B   3,B   2)   -160.2527         0.010000   
    172. D(B   0,B  10,B   2,B  11)   -144.1603         0.010000   
    173. D(B   0,B  10,B   2,B   3)    -47.0890         0.010000   
    174. D(B   0,B  10,B   5,B   4)     62.9718         0.010000   
    175. D(B   6,B  10,B   2,B  11)     -6.2899         0.010000   
    176. D(B   6,B  10,B   2,B   3)     90.7814         0.010000   
    177. D(B   5,B  10,B   2,B   6)    -54.4879         0.010000   
    178. D(B   5,B  10,B   6,B   9)   -140.3608         0.010000   
    179. D(B   5,B  10,B   2,B  11)    -60.7778         0.010000   
    180. D(B   5,B  10,B   2,B   3)     36.2935         0.010000   
    181. D(B   2,B  10,B   0,B   3)     19.5385         0.010000   
    182. D(B   0,B  10,B   6,B   9)    154.0994         0.010000   
    183. D(B   2,B  10,B   0,B   5)    154.3801         0.010000   
    184. D(B   3,B  10,B   0,B   5)    134.8416         0.010000   
    185. D(B   6,B  10,B   0,B   3)    -71.0291         0.010000   
    186. D(B   6,B  10,B   0,B   5)     63.8125         0.010000   
    187. D(B   3,B  11,B   9,B   6)    -37.2154         0.037973   
    188. D(B   2,B  11,B   9,B   6)     11.0669         0.037973   
    189. D(B   2,B  11,B   6,B   3)     25.0481         0.016079   
    190. D(B   2,B  11,B   6,B  10)    -13.2188         0.016079   
    191. D(B   2,B  11,B   6,B   9)   -176.6919         0.016079   
    192. D(B   9,B  11,B   6,B   2)    176.6919         0.016079   
    193. D(B   9,B  11,B   6,B   3)   -158.2599         0.016079   
    194. D(B   9,B  11,B   6,B  10)    163.4731         0.016079   
    195. D(B   9,B  11,B   3,B   6)     28.0820         0.010000   
    196. D(B   9,B  11,B   3,B   0)     40.1903         0.010000   
    197. D(B   9,B  11,B   3,B  10)     53.4228         0.010000   
    198. D(B   9,B  11,B   3,B   2)    154.8919         0.010000   
    199. D(B   6,B  11,B   3,B   8)    -79.8864         0.010000   
    200. D(B   6,B  11,B   3,B   0)     12.1083         0.010000   
    201. D(B   6,B  11,B   3,B  10)     25.3408         0.010000   
    202. D(B   6,B  11,B   3,B   2)    126.8098         0.010000   
    203. D(B   3,B  11,B   2,B  10)     68.7915         0.010000   
    204. D(B   9,B  11,B   2,B   6)     -9.3138         0.010000   
    205. D(B   9,B  11,B   2,B  10)     -0.6679         0.010000   
    206. D(B   3,B  11,B   6,B   9)    158.2599         0.016079   
    207. D(B   9,B  11,B   2,B   3)    -69.4594         0.010000   
    208. D(B   6,B  11,B   2,B  10)      8.6459         0.010000   
    209. D(B   6,B  11,B   2,B   3)    -60.1456         0.010000   
    -----------------------------------------------------------------

Number of atoms                         .... 12
Number of degrees of freedom            .... 209


         *************************************************************
         *                GEOMETRY OPTIMIZATION CYCLE   1            *
         *************************************************************
---------------------------------
CARTESIAN COORDINATES (ANGSTROEM)
---------------------------------
  B     1.925259   -0.935180    2.183282
  B    -1.014818   -2.270168   -1.778940
  B    -1.830692    1.927880    1.933932
  B    -1.616689    0.354868    1.508056
  B     0.847560   -2.366169   -1.178007
  B     2.662417    0.557573   -0.263236
  B     0.927919    1.711412   -1.046361
  B    -0.913310   -2.884746   -0.629582
  B    -2.543896   -2.023804    1.516287
  B     0.433923    2.345443   -1.989085
  B     1.580274    1.267387    0.687276
  B    -0.457948    2.315504   -0.943622

----------------------------
CARTESIAN COORDINATES (A.U.)
----------------------------
  NO LB    ZA    FRAG    MASS        X           Y           Z
   0 B   5.0000    0    10.810    3.638212   -1.767234    4.125805
   1 B   5.0000    0    10.810   -1.917728   -4.289995   -3.361710
   2 B   5.0000    0    10.810   -3.459506    3.643164    3.654602
   3 B   5.0000    0    10.810   -3.055100    0.670604    2.849813
   4 B   5.0000    0    10.810    1.601656   -4.471411   -2.226111
   5 B   5.0000    0    10.810    5.031239    1.053661   -0.497444
   6 B   5.0000    0    10.810    1.753513    3.234100   -1.977336
   7 B   5.0000    0    10.810   -1.725906   -5.451380   -1.189737
   8 B   5.0000    0    10.810   -4.807268   -3.824436    2.865367
   9 B   5.0000    0    10.810    0.819996    4.432244   -3.758826
  10 B   5.0000    0    10.810    2.986286    2.395014    1.298764
  11 B   5.0000    0    10.810   -0.865396    4.375669   -1.783187

      -----------------------------------------------------------      
     |                   =====================                   |     
     |                           x T B                           |     
     |                   =====================                   |     
     |                         S. Grimme                         |     
     |          Mulliken Center for Theoretical Chemistry        |     
     |                    University of Bonn                     |     
      -----------------------------------------------------------      

   * xtb version 6.6.1 (unknown) compiled by 'builduser@buildhost' on 2023-08-07

   xtb is free software: you can redistribute it and/or modify it under
   the terms of the GNU Lesser General Public License as published by
   the Free Software Foundation, either version 3 of the License, or
   (at your option) any later version.
   
   xtb is distributed in the hope that it will be useful,
   but WITHOUT ANY WARRANTY; without even the implied warranty of
   MERCHANTABILITY or FITNESS FOR A PARTICULAR PURPOSE.  See the
   GNU Lesser General Public License for more details.
   
   Cite this work as:
   * C. Bannwarth, E. Caldeweyher, S. Ehlert, A. Hansen, P. Pracht,
     J. Seibert, S. Spicher, S. Grimme, WIREs Comput. Mol. Sci., 2020, 11,
     e01493. DOI: 10.1002/wcms.1493
   
   for GFN2-xTB:
   * C. Bannwarth, S. Ehlert and S. Grimme., J. Chem. Theory Comput., 2019,
     15, 1652-1671. DOI: 10.1021/acs.jctc.8b01176
   for GFN1-xTB:
   * S. Grimme, C. Bannwarth, P. Shushkov, J. Chem. Theory Comput., 2017,
     13, 1989-2009. DOI: 10.1021/acs.jctc.7b00118
   for GFN0-xTB:
   * P. Pracht, E. Caldeweyher, S. Ehlert, S. Grimme, ChemRxiv, 2019, preprint.
     DOI: 10.26434/chemrxiv.8326202.v1
   for GFN-FF:
   * S. Spicher and S. Grimme, Angew. Chem. Int. Ed., 2020, 59, 15665-15673.
     DOI: 10.1002/anie.202004239
   
   for ALPB and GBSA implicit solvation:
   * S. Ehlert, M. Stahn, S. Spicher, S. Grimme, J. Chem. Theory Comput.,
     2021, 17, 4250-4261. DOI: 10.1021/acs.jctc.1c00471
   
   for DFT-D4:
   * E. Caldeweyher, C. Bannwarth and S. Grimme, J. Chem. Phys., 2017,
     147, 034112. DOI: 10.1063/1.4993215
   * E. Caldeweyher, S. Ehlert, A. Hansen, H. Neugebauer, S. Spicher,
     C. Bannwarth and S. Grimme, J. Chem. Phys., 2019, 150, 154122.
     DOI: 10.1063/1.5090222
   * E. Caldeweyher, J.-M. Mewes, S. Ehlert and S. Grimme, Phys. Chem. Chem. Phys.
     2020, 22, 8499-8512. DOI: 10.1039/D0CP00502A
   
   for sTDA-xTB:
   * S. Grimme and C. Bannwarth, J. Chem. Phys., 2016, 145, 054103.
     DOI: 10.1063/1.4959605
   
   in the mass-spec context:
   * V. Asgeirsson, C. Bauer and S. Grimme, Chem. Sci., 2017, 8, 4879.
     DOI: 10.1039/c7sc00601b
   * J. Koopman and S. Grimme, ACS Omega 2019, 4, 12, 15120-15133.
     DOI: 10.1021/acsomega.9b02011
   
   for metadynamics refer to:
   * S. Grimme, J. Chem. Theory Comput., 2019, 155, 2847-2862
     DOI: 10.1021/acs.jctc.9b00143
   
   for SPH calculations refer to:
   * S. Spicher and S. Grimme, J. Chem. Theory Comput., 2021, 17, 1701-1714
     DOI: 10.1021/acs.jctc.0c01306
   
   with help from (in alphabetical order)
   P. Atkinson, C. Bannwarth, F. Bohle, G. Brandenburg, E. Caldeweyher
   M. Checinski, S. Dohm, S. Ehlert, S. Ehrlich, I. Gerasimov, C. Hölzer
   A. Katbashev, J. Koopman, C. Lavigne, S. Lehtola, F. März, M. Müller,
   F. Musil, H. Neugebauer, J. Pisarek, C. Plett, P. Pracht, F. Pultar,
   J. Seibert, P. Shushkov, S. Spicher, M. Stahn, M. Steiner, T. Strunk,
   J. Stückrath, T. Rose, and J. Unsleber
   
 * started run on 2026/04/17 at 12:14:43.655     

           -------------------------------------------------
          |                Calculation Setup                |
           -------------------------------------------------

          program call               : /usr/bin/xtb random_d1.90_003_m3_XTB.xyz --grad -c 0 -u 2 -P 1 --namespace random_d1.90_003_m3 --input random_d1.90_003_m3_XTB.input.tmp --acc 0.200000
          calculation namespace      : random_d1.90_003_m3
          coordinate file            : random_d1.90_003_m3_XTB.xyz
          omp threads                :                     1

   ID    Z sym.   atoms
    1    5 B      1-12

molecular fragmentation (1/2 indicates fragments):
122222222222
# atoms in fragment 1/2:     1    11
 fragment masses (1/2) :       10.81      118.92
CMA distance (Bohr)    :   6.303
constraining FC (au)   :  0.0500

           -------------------------------------------------
          |                 G F N 2 - x T B                 |
           -------------------------------------------------

        Reference                      10.1021/acs.jctc.8b01176
      * Hamiltonian:
        H0-scaling (s, p, d)           1.850000    2.230000    2.230000
        zeta-weighting                 0.500000
      * Dispersion:
        s8                             2.700000
        a1                             0.520000
        a2                             5.000000
        s9                             5.000000
      * Repulsion:
        kExp                           1.500000    1.000000
        rExp                           1.000000
      * Coulomb:
        alpha                          2.000000
        third order                    shell-resolved
        anisotropic                    true
        a3                             3.000000
        a5                             4.000000
        cn-shift                       1.200000
        cn-exp                         4.000000
        max-rad                        5.000000


          ...................................................
          :                      SETUP                      :
          :.................................................:
          :  # basis functions                  48          :
          :  # atomic orbitals                  48          :
          :  # shells                           24          :
          :  # electrons                        36          :
          :  max. iterations                   250          :
          :  Hamiltonian                  GFN2-xTB          :
          :  restarted?                      false          :
          :  GBSA solvation                  false          :
          :  PC potential                    false          :
          :  electronic temp.          300.0000000     K    :
          :  accuracy                    0.2000000          :
          :  -> integral cutoff          0.3198970E+02      :
          :  -> integral neglect         0.2000000E-08      :
          :  -> SCF convergence          0.2000000E-06 Eh   :
          :  -> wf. convergence          0.2000000E-04 e    :
          :  Broyden damping             0.4000000          :
          ...................................................

 iter      E             dE          RMSdq      gap      omega  full diag
   1    -12.6353053 -0.126353E+02  0.202E+01    0.03       0.0  T
   2      5.4213238  0.180566E+02  0.243E+01    0.41       1.0  T
   3     26.5675570  0.211462E+02  0.321E+01    0.20       1.0  T
   4     -1.6862766 -0.282538E+02  0.199E+01    0.31       1.0  T
   5     -7.0722438 -0.538597E+01  0.169E+01    0.17       1.0  T
   6      8.6281286  0.157004E+02  0.230E+01    0.43       1.0  T
   7     -7.5796865 -0.162078E+02  0.139E+01    0.12       1.0  T
   8    -10.2090260 -0.262934E+01  0.118E+01    0.19       1.0  T
   9    -10.8677762 -0.658750E+00  0.115E+01    0.13       1.0  T
  10    -11.8077310 -0.939955E+00  0.960E+00    0.06       1.0  T
  11    -11.7947368  0.129942E-01  0.105E+01    0.17       1.0  T
  12    -11.8495394 -0.548026E-01  0.103E+01    0.19       1.0  T
  13    -11.8197002  0.298392E-01  0.103E+01    0.20       1.0  T
  14    -11.9776146 -0.157914E+00  0.995E+00    0.21       1.0  T
  15    -12.9435757 -0.965961E+00  0.790E+00    0.22       1.0  T
  16    -12.7570746  0.186501E+00  0.870E+00    0.19       1.0  T
  17    -13.0726097 -0.315535E+00  0.742E+00    0.23       1.0  T
  18    -13.0780455 -0.543580E-02  0.730E+00    0.24       1.0  T
  19    -13.0792247 -0.117927E-02  0.683E+00    0.24       1.0  T
  20    -13.1381069 -0.588822E-01  0.562E+00    0.28       1.0  T
  21    -13.1952860 -0.571791E-01  0.438E+00    0.26       1.0  T
  22    -13.3404699 -0.145184E+00  0.354E+00    0.30       1.0  T
  23    -13.3581250 -0.176552E-01  0.363E+00    0.28       1.0  T
  24    -13.3662792 -0.815412E-02  0.340E+00    0.26       1.0  T
  25    -13.3680188 -0.173964E-02  0.342E+00    0.26       1.0  T
  26    -13.3759521 -0.793332E-02  0.280E+00    0.26       1.0  T
  27    -13.3742662  0.168598E-02  0.268E+00    0.25       1.0  T
  28    -13.3701764  0.408970E-02  0.247E+00    0.24       1.0  T
  29    -13.4017266 -0.315502E-01  0.225E+00    0.29       1.0  T
  30    -13.4437597 -0.420331E-01  0.149E+00    0.29       1.0  T
  31    -13.4545939 -0.108341E-01  0.137E+00    0.28       1.0  T
  32    -13.4631284 -0.853452E-02  0.128E+00    0.26       1.0  T
  33    -13.4648184 -0.168999E-02  0.127E+00    0.26       1.0  T
  34    -13.4714580 -0.663964E-02  0.901E-01    0.18       1.0  T
  35    -13.4734040 -0.194601E-02  0.819E-01    0.18       1.0  T
  36    -13.4743135 -0.909522E-03  0.643E-01    0.19       1.0  T
  37    -13.4755376 -0.122409E-02  0.447E-01    0.20       1.0  T
  38    -13.4751802  0.357429E-03  0.423E-01    0.20       1.0  T
  39    -13.4757928 -0.612567E-03  0.287E-01    0.19       1.0  T
  40    -13.4761552 -0.362475E-03  0.250E-01    0.18       1.0  T
  41    -13.4766023 -0.447025E-03  0.172E-01    0.19       1.0  T
  42    -13.4767531 -0.150833E-03  0.148E-01    0.19       1.0  T
  43    -13.4768548 -0.101730E-03  0.108E-01    0.19       1.0  T
  44    -13.4769485 -0.936642E-04  0.698E-02    0.19       1.0  T
  45    -13.4769645 -0.159900E-04  0.673E-02    0.19       1.0  T
  46    -13.4769967 -0.322514E-04  0.478E-02    0.19       1.0  T
  47    -13.4770123 -0.155610E-04  0.394E-02    0.19       1.0  T
  48    -13.4770244 -0.121130E-04  0.281E-02    0.19       1.0  T
  49    -13.4770195  0.493791E-05  0.230E-02    0.19       1.3  T
  50    -13.4770257 -0.623012E-05  0.147E-02    0.19       2.0  T
  51    -13.4770269 -0.121579E-05  0.684E-03    0.18       4.2  T
  52    -13.4770269  0.392047E-07  0.598E-03    0.18       4.8  T
  53    -13.4770274 -0.485016E-06  0.410E-03    0.18       7.0  T
  54    -13.4770276 -0.237358E-06  0.261E-03    0.18      11.1  T
  55    -13.4770277 -0.491043E-07  0.183E-03    0.19      15.8  T
  56    -13.4770277 -0.404432E-07  0.133E-03    0.19      21.8  T
  57    -13.4770277 -0.137190E-07  0.967E-04    0.19      29.9  T
  58    -13.4770277 -0.853563E-08  0.514E-04    0.19      56.2  T
  59    -13.4770277 -0.631069E-09  0.422E-04    0.19      68.4  T
  60    -13.4770277 -0.157555E-08  0.198E-04    0.19     146.0  T
  61    -13.4770277 -0.178959E-09  0.141E-04    0.19     205.2  T

   *** convergence criteria satisfied after 61 iterations ***

         #    Occupation            Energy/Eh            Energy/eV
      -------------------------------------------------------------
         1        2.0000           -0.4378955             -11.9157
       ...           ...                  ...                  ...
        13        2.0000           -0.2774551              -7.5499
        14        2.0000           -0.2662736              -7.2457
        15        1.9999           -0.2627549              -7.1499
        16        1.9995           -0.2606625              -7.0930
        17        1.9776           -0.2570397              -6.9944
        18        1.0227           -0.2498867              -6.7998
        19        0.9732           -0.2450263              -6.6675 (HOMO)
        20        0.0271           -0.2382160              -6.4822 (LUMO)
        21        0.0000           -0.2296668              -6.2496
        22        0.0000           -0.2282199              -6.2102
        23                         -0.2255371              -6.1372
        24                         -0.2191223              -5.9626
       ...                                ...                  ...
        48                          3.0532457              83.0830
      -------------------------------------------------------------
                  HL-Gap            0.0068102 Eh            0.1853 eV
             Fermi-level           -0.2475362 Eh           -6.7358 eV

 transition dipole moment (au) for excitation:          18          19
     X       Y       Z   
   0.5993  -1.1436  -0.8728  total (au/Debye):    1.558   3.961
 dE (eV)             :    0.132
 oscillator strength :  0.11129E-01

 SCC (total)                   0 d,  0 h,  0 min,  0.080 sec
 SCC setup                      ...        0 min,  0.000 sec (  0.213%)
 Dispersion                     ...        0 min,  0.000 sec (  0.158%)
 classical contributions        ...        0 min,  0.000 sec (  0.041%)
 integral evaluation            ...        0 min,  0.004 sec (  5.231%)
 iterations                     ...        0 min,  0.064 sec ( 80.176%)
 molecular gradient             ...        0 min,  0.007 sec (  8.926%)
 printout                       ...        0 min,  0.004 sec (  5.224%)

         :::::::::::::::::::::::::::::::::::::::::::::::::::::
         ::                     SUMMARY                     ::
         :::::::::::::::::::::::::::::::::::::::::::::::::::::
         :: total energy             -13.104015680320 Eh    ::
         :: gradient norm              0.882102122381 Eh/a0 ::
         :: HOMO-LUMO gap              0.185315603501 eV    ::
         ::.................................................::
         :: SCC energy               -13.477027721434 Eh    ::
         :: -> isotropic ES            0.075271983597 Eh    ::
         :: -> anisotropic ES          0.002408362161 Eh    ::
         :: -> anisotropic XC         -0.038065837628 Eh    ::
         :: -> dispersion             -0.016446992791 Eh    ::
         :: repulsion energy           0.372771312362 Eh    ::
         :: add. restraining           0.000000000000 Eh    ::
         :: total charge               0.000000000553 e     ::
         :::::::::::::::::::::::::::::::::::::::::::::::::::::


Property printout bound to 'properties.out'

           -------------------------------------------------
          | TOTAL ENERGY              -13.104015680320 Eh   |
          | GRADIENT NORM               0.882102122381 Eh/α |
          | HOMO-LUMO GAP               0.185315603501 eV   |
           -------------------------------------------------

------------------------------------------------------------------------
 * finished run on 2026/04/17 at 12:14:43.749     
------------------------------------------------------------------------
 total:
 * wall-time:     0 d,  0 h,  0 min,  0.094 sec
 *  cpu-time:     0 d,  0 h,  0 min,  0.093 sec
 * ratio c/w:     0.987 speedup
 SCF:
 * wall-time:     0 d,  0 h,  0 min,  0.080 sec
 *  cpu-time:     0 d,  0 h,  0 min,  0.079 sec
 * ratio c/w:     0.985 speedup


-------------------------   --------------------
FINAL SINGLE POINT ENERGY       -13.104015680320
-------------------------   --------------------


-------------
DIPOLE MOMENT
-------------
                                X             Y             Z
Total Dipole Moment    :      0.04400       1.83600      -0.91900
                        -----------------------------------------
Magnitude (a.u.)       :      2.05363
Magnitude (Debye)      :      5.21991


------------------
CARTESIAN GRADIENT
------------------

   1   B   :    0.005655438   -0.036405977    0.035706527
   2   B   :   -0.035802186   -0.098966137    0.173555005
   3   B   :   -0.021173477    0.106683810    0.040263964
   4   B   :    0.030047954   -0.060062883   -0.027389182
   5   B   :    0.099095868    0.005453416   -0.002823313
   6   B   :    0.071916604   -0.034635461   -0.060359036
   7   B   :   -0.262558715    0.289037990   -0.409891566
   8   B   :   -0.055933997    0.081899156   -0.187311973
   9   B   :   -0.032403772   -0.048153917    0.014992076
  10   B   :    0.135831176   -0.256809924    0.456028641
  11   B   :   -0.059209441    0.066589313    0.054749707
  12   B   :    0.124534547   -0.014629385   -0.087520850

Difference to translation invariance:
           :   -0.0000000000    0.0000000000    0.0000000000

Difference to rotation invariance:
           :   -0.0000000460    0.0000000487   -0.0000000796

Norm of the Cartesian gradient     ...    0.8821021224
RMS gradient                       ...    0.1470170204
MAX gradient                       ...    0.4560286413
------------------------------------------------------------------------------
                         ORCA GEOMETRY RELAXATION STEP
------------------------------------------------------------------------------

Reading the OPT-File                    .... done
Getting information on internals        .... done
Copying old internal coords+grads       .... done
Making the new internal coordinates     .... (2022 redundants) done
Validating the new internal coordinates .... (2022 redundants) done
Calculating the B-matrix                .... done
Calculating the G,G- and P matrices     .... done
Transforming gradient to internals      .... done
Projecting the internal gradient        .... done
Number of atoms                         ....  12
Number of internal coordinates          .... 209
Current Energy                          ....   -13.104015680 Eh
Current gradient norm                   ....     0.882102122 Eh/bohr
Maximum allowed component of the step   ....  0.300
Current trust radius                    ....  0.300
Evaluating the initial hessian          ....  (Almloef) done
Projecting the Hessian                  .... done
Forming the augmented Hessian           .... done
Diagonalizing the augmented Hessian     .... done
Last element of RFO vector              ....  0.867891278
Lowest eigenvalues of augmented Hessian:
 -0.243848323  0.010764780  0.011773172  0.012246898  0.014639291
Length of the computed step             ....  0.572369152
Warning: the length of the step is outside the trust region - taking restricted step instead
The input lambda is                     ....     0.009623
   iter:   5  x=    0.000960  g=21688.563155 f(x)=    77.163871
   iter:  10  x=   -0.095702  g=   37.605649 f(x)=     1.612036
   iter:  15  x=   -0.833736  g=    0.164356 f(x)=     0.017809
   iter:  20  x=   -0.851395  g=    0.121499 f(x)=     0.000000
The output lambda is                    ....    -0.851395 (20 iterations)
The final length of the internal step   ....  0.300000000
Converting the step to Cartesian space:
 Initial RMS(Int)=    0.0207514339
Transforming coordinates:
 Iter   0:  RMS(Cart)=    0.0369261415 RMS(Int)=    0.0207240599
done
Storing new coordinates                 .... done

                                .--------------------.
          ----------------------|Geometry convergence|-------------------------
          Item                value                   Tolerance       Converged
          ---------------------------------------------------------------------
          RMS gradient        0.0342512769            0.0000300000      NO
          MAX gradient        0.3330409777            0.0001000000      NO
          RMS step            0.0207514339            0.0006000000      NO
          MAX step            0.1764932600            0.0010000000      NO
          -------------------------------------------------------------------------
          ........................................................
          Max(Bonds)      0.0934      Max(Angles)    2.66
          Max(Dihed)        1.51      Max(Improp)    0.00
          ---------------------------------------------------------------------

The optimization has not yet converged - more geometry cycles are needed


    ---------------------------------------------------------------------------
                         Redundant Internal Coordinates
                            (Angstroem and degrees)

        Definition                    Value    dE/dq     Step     New-Value
    ----------------------------------------------------------------------------
     1. B(B   3,B   0)                3.8296  0.011570 -0.0062    3.8234   
     2. B(B   3,B   2)                1.6436  0.098245 -0.0424    1.6012   
     3. B(B   4,B   1)                1.9593  0.021262 -0.0185    1.9408   
     4. B(B   5,B   4)                3.5607  0.006358 -0.0043    3.5564   
     5. B(B   5,B   0)                2.9593  0.032039 -0.0175    2.9417   
     6. B(B   6,B   3)                3.8523  0.007830 -0.0034    3.8489   
     7. B(B   6,B   2)                4.0668  0.007189 -0.0047    4.0621   
     8. B(B   7,B   1)                1.3073 -0.121325  0.0413    1.3486   
     9. B(B   7,B   4)                1.9158  0.042889 -0.0242    1.8917   
    10. B(B   8,B   1)                3.6411 -0.034724  0.0105    3.6515   
    11. B(B   8,B   7)                2.8293  0.045330 -0.0185    2.8108   
    12. B(B   8,B   3)                2.5530  0.057630 -0.0352    2.5178   
    13. B(B   9,B   6)                1.2389 -0.333041  0.0934    1.3322   
    14. B(B  10,B   2)                3.6912  0.006006 -0.0036    3.6876   
    15. B(B  10,B   3)                3.4245  0.000375  0.0005    3.4250   
    16. B(B  10,B   6)                1.9048  0.041301 -0.0177    1.8871   
    17. B(B  10,B   5)                1.6057  0.081870 -0.0365    1.5693   
    18. B(B  10,B   0)                2.6848  0.025894 -0.0154    2.6694   
    19. B(B  11,B   3)                3.3463 -0.013824 -0.0002    3.3461   
    20. B(B  11,B   2)                3.2117  0.001952 -0.0023    3.2094   
    21. B(B  11,B   9)                1.3745 -0.147417  0.0395    1.4140   
    22. B(B  11,B   6)                1.5153 -0.139257  0.0387    1.5540   
    23. A(B   5,B   0,B  10)           32.60  0.012877   -0.58     32.02   
    24. A(B   3,B   0,B   5)           85.11  0.005988   -0.21     84.90   
    25. A(B   3,B   0,B  10)           60.43 -0.002857    0.19     60.62   
    26. A(B   4,B   1,B   8)           97.18  0.027148   -1.08     96.09   
    27. A(B   7,B   1,B   8)           43.01  0.009300   -0.43     42.58   
    28. A(B   4,B   1,B   7)           68.50  0.027131   -1.04     67.46   
    29. A(B   3,B   2,B   6)           70.78 -0.002109    0.15     70.93   
    30. A(B  10,B   2,B  11)           47.47 -0.019674    0.53     48.00   
    31. A(B   6,B   2,B  11)           19.93 -0.025830    0.80     20.73   
    32. A(B   3,B   2,B  11)           80.08 -0.016190    0.58     80.65   
    33. A(B   6,B   2,B  10)           27.89  0.005449   -0.24     27.65   
    34. A(B   3,B   2,B  10)           67.72 -0.003879    0.24     67.96   
    35. A(B   6,B   3,B   8)          124.76  0.008852   -0.33    124.43   
    36. A(B   8,B   3,B  10)          126.02  0.011249   -0.40    125.62   
    37. A(B   8,B   3,B  11)          132.38  0.006442   -0.29    132.09   
    38. A(B   0,B   3,B  11)           90.36 -0.015566    0.29     90.65   
    39. A(B  10,B   3,B  11)           49.08 -0.018303    0.49     49.57   
    40. A(B   2,B   3,B  10)           85.91 -0.010984    0.45     86.36   
    41. A(B   6,B   3,B  11)           22.95 -0.023147    0.70     23.64   
    42. A(B   6,B   3,B  10)           29.61  0.005829   -0.27     29.34   
    43. A(B   0,B   3,B   6)           67.95  0.008612   -0.45     67.50   
    44. A(B   2,B   3,B   6)           85.46 -0.011017    0.46     85.91   
    45. A(B   0,B   3,B  10)           42.99  0.003193   -0.21     42.78   
    46. A(B   2,B   3,B  11)           70.98 -0.000940    0.18     71.17   
    47. A(B   0,B   3,B   2)          113.40 -0.006666    0.20    113.60   
    48. A(B   0,B   3,B   8)           91.23  0.007169   -0.14     91.09   
    49. A(B   2,B   3,B   8)          147.52 -0.000059   -0.05    147.46   
    50. A(B   1,B   4,B   5)          121.54  0.018129   -0.72    120.81   
    51. A(B   5,B   4,B   7)          128.11  0.010982   -0.46    127.65   
    52. A(B   1,B   4,B   7)           39.41 -0.041310    1.75     41.16   
    53. A(B   4,B   5,B  10)           99.88 -0.000400   -0.10     99.78   
    54. A(B   0,B   5,B   4)           70.81 -0.001184    0.03     70.83   
    55. A(B   0,B   5,B  10)           64.26 -0.003609    0.13     64.39   
    56. A(B  10,B   6,B  11)          110.15 -0.021897    0.70    110.85   
    57. A(B   2,B   6,B   3)           23.76  0.013127   -0.61     23.15   
    58. A(B   9,B   6,B  11)           58.86  0.023314   -0.79     58.07   
    59. A(B   2,B   6,B  10)           65.02 -0.000680    0.04     65.07   
    60. A(B   2,B   6,B   9)          105.07 -0.000202   -0.05    105.02   
    61. A(B   3,B   6,B  11)           59.42 -0.013927    0.31     59.73   
    62. A(B   2,B   6,B  11)           46.27 -0.023284    0.73     47.00   
    63. A(B   3,B   6,B  10)           62.65 -0.002242    0.13     62.78   
    64. A(B   3,B   6,B   9)          114.92  0.005088   -0.29    114.63   
    65. A(B   9,B   6,B  10)          161.52  0.001307   -0.09    161.43   
    66. A(B   1,B   7,B   8)          118.62  0.006514   -0.15    118.48   
    67. A(B   1,B   7,B   4)           72.09  0.014179   -0.70     71.38   
    68. A(B   4,B   7,B   8)          131.64 -0.009045    0.42    132.06   
    69. A(B   3,B   8,B   7)           94.12 -0.007729    0.31     94.42   
    70. A(B   1,B   8,B   7)           18.37 -0.015814    0.57     18.94   
    71. A(B   1,B   8,B   3)           84.70  0.002832   -0.08     84.61   
    72. A(B   6,B   9,B  11)           70.66  0.063268   -1.87     68.78   
    73. A(B   2,B  10,B   3)           26.37  0.014864   -0.69     25.68   
    74. A(B   0,B  10,B   2)           94.44  0.010157   -0.47     93.96   
    75. A(B   2,B  10,B   6)           87.09 -0.004769    0.20     87.29   
    76. A(B   2,B  10,B   5)          154.39  0.006578   -0.28    154.11   
    77. A(B   0,B  10,B   3)           76.57 -0.000336    0.03     76.60   
    78. A(B   3,B  10,B   6)           87.74 -0.003587    0.14     87.88   
    79. A(B   3,B  10,B   5)          130.79 -0.007980    0.39    131.18   
    80. A(B   0,B  10,B   6)          137.93  0.000292    0.02    137.95   
    81. A(B   0,B  10,B   5)           83.14 -0.009267    0.45     83.59   
    82. A(B   5,B  10,B   6)           78.18  0.008631   -0.37     77.81   
    83. A(B   2,B  11,B   6)          113.80  0.049114   -1.53    112.27   
    84. A(B   2,B  11,B   3)           28.94  0.017130   -0.76     28.18   
    85. A(B   3,B  11,B   9)          142.63 -0.041960    1.47    144.10   
    86. A(B   3,B  11,B   6)           97.63  0.037074   -1.01     96.62   
    87. A(B   6,B  11,B   9)           50.48 -0.086582    2.66     53.14   
    88. A(B   2,B  11,B   9)          164.03 -0.037470    1.13    165.17   
    89. D(B  11,B   3,B   2,B   6)    -18.25  0.021853   -0.68    -18.92   
    90. D(B  10,B   3,B   2,B   6)     29.69  0.006287   -0.29     29.40   
    91. D(B   6,B   3,B   0,B  10)     19.75  0.001573   -0.08     19.67   
    92. D(B   0,B   3,B   2,B  11)     81.84 -0.015845    0.34     82.18   
    93. D(B  10,B   3,B   2,B  11)     47.94 -0.015566    0.39     48.33   
    94. D(B   0,B   3,B   2,B  10)     33.90 -0.000279   -0.05     33.86   
    95. D(B   6,B   3,B   2,B  11)     18.25 -0.021853    0.68     18.92   
    96. D(B   0,B   3,B   2,B   6)     63.60  0.006008   -0.34     63.26   
    97. D(B   2,B   3,B   0,B   5)    -77.22 -0.003458    0.19    -77.04   
    98. D(B  10,B   3,B   0,B   5)    -22.54 -0.009987    0.46    -22.08   
    99. D(B   6,B   3,B   0,B   5)     -2.79 -0.008414    0.38     -2.41   
   100. D(B  11,B   3,B   2,B  10)    -47.94  0.015566   -0.39    -48.33   
   101. D(B  11,B   3,B   0,B   5)     -7.85 -0.010612    0.49     -7.36   
   102. D(B   2,B   3,B   0,B  10)    -54.68  0.006529   -0.27    -54.95   
   103. D(B  11,B   3,B   0,B  10)     14.69 -0.000625    0.03     14.72   
   104. D(B   7,B   4,B   1,B   8)     32.67  0.010581   -0.47     32.21   
   105. D(B   5,B   4,B   1,B   8)    -80.51  0.018488   -0.76    -81.27   
   106. D(B   5,B   4,B   1,B   7)   -113.19  0.007907   -0.29   -113.48   
   107. D(B   0,B   5,B   4,B   7)     57.50  0.012528   -0.42     57.08   
   108. D(B  10,B   5,B   4,B   1)     47.21 -0.025389    1.17     48.38   
   109. D(B   4,B   5,B   0,B   3)    -73.44 -0.000510    0.15    -73.30   
   110. D(B   4,B   5,B   0,B  10)   -111.68 -0.002323    0.22   -111.47   
   111. D(B   0,B   5,B   4,B   1)    105.38 -0.029792    1.39    106.77   
   112. D(B  10,B   5,B   4,B   7)     -0.67  0.016932   -0.64     -1.31   
   113. D(B  10,B   5,B   0,B   3)     38.24  0.001813   -0.07     38.17   
   114. D(B  11,B   6,B   2,B   3)    115.21 -0.004494    0.12    115.33   
   115. D(B   9,B   6,B   2,B   3)    118.14  0.001996   -0.11    118.03   
   116. D(B   9,B   6,B   2,B  11)      2.93  0.006490   -0.23      2.70   
   117. D(B  10,B   6,B   2,B  11)    166.30  0.008711   -0.35    165.95   
   118. D(B  10,B   6,B   2,B   3)    -78.49  0.004218   -0.23    -78.71   
   119. D(B  10,B   6,B   3,B  11)    139.11 -0.017196    0.67    139.78   
   120. D(B  10,B   6,B   3,B   0)    -27.81  0.001294   -0.01    -27.82   
   121. D(B  10,B   6,B   3,B   2)     89.71 -0.003273    0.13     89.84   
   122. D(B   9,B   6,B   3,B   8)     97.26 -0.010624    0.40     97.67   
   123. D(B   9,B   6,B   3,B   0)    172.62  0.000883    0.04    172.65   
   124. D(B   9,B   6,B   3,B  10)   -159.57 -0.000411    0.04   -159.53   
   125. D(B   9,B   6,B   3,B  11)    -20.46 -0.017607    0.71    -19.75   
   126. D(B   9,B   6,B   3,B   2)    -69.87 -0.003684    0.17    -69.69   
   127. D(B  11,B   6,B   2,B  10)   -166.30 -0.008711    0.35   -165.95   
   128. D(B   9,B   6,B   2,B  10)   -163.37 -0.002221    0.11   -163.26   
   129. D(B  10,B   6,B   3,B   8)   -103.16 -0.010213    0.36   -102.80   
   130. D(B   1,B   7,B   4,B   5)     95.31 -0.009430    0.47     95.78   
   131. D(B   8,B   7,B   1,B   4)    128.25 -0.003944    0.17    128.42   
   132. D(B   4,B   7,B   1,B   8)   -128.25  0.003944   -0.17   -128.42   
   133. D(B   8,B   7,B   4,B   5)    -17.41 -0.029699    1.24    -16.17   
   134. D(B   8,B   7,B   4,B   1)   -112.72 -0.020269    0.77   -111.95   
   135. D(B   1,B   8,B   7,B   4)     90.94  0.021353   -0.91     90.02   
   136. D(B   1,B   8,B   3,B  11)     16.13 -0.004716    0.00     16.14   
   137. D(B   7,B   8,B   3,B   6)      4.08  0.010845   -0.38      3.69   
   138. D(B   7,B   8,B   3,B   0)    -59.68 -0.002645    0.19    -59.49   
   139. D(B   7,B   8,B   3,B  10)    -32.42 -0.001030    0.12    -32.30   
   140. D(B   3,B   8,B   7,B   4)     31.64  0.013122   -0.58     31.06   
   141. D(B   3,B   8,B   7,B   1)    -59.30 -0.008231    0.34    -58.96   
   142. D(B   1,B   8,B   3,B   2)    143.86  0.009653   -0.34    143.53   
   143. D(B   7,B   8,B   3,B  11)     31.93 -0.016877    0.44     32.37   
   144. D(B   7,B   8,B   3,B   2)    159.66 -0.002507    0.10    159.75   
   145. D(B   7,B   8,B   1,B   4)    -47.43 -0.018738    0.74    -46.69   
   146. D(B   3,B   8,B   1,B   7)    120.54 -0.008782    0.36    120.90   
   147. D(B   3,B   8,B   1,B   4)     73.11 -0.027521    1.10     74.21   
   148. D(B  11,B   9,B   6,B   2)     -2.47 -0.003905    0.15     -2.33   
   149. D(B  11,B   9,B   6,B   3)     20.59  0.009343   -0.47     20.12   
   150. D(B  11,B   9,B   6,B  10)    -57.43  0.001571   -0.02    -57.44   
   151. D(B   5,B  10,B   0,B   3)   -134.84  0.004459   -0.22   -135.06   
   152. D(B   0,B  10,B   6,B   2)     93.40  0.009886   -0.48     92.91   
   153. D(B   0,B  10,B   6,B   3)     67.01 -0.005058    0.21     67.21   
   154. D(B   0,B  10,B   6,B  11)    103.90 -0.002358   -0.04    103.85   
   155. D(B   5,B  10,B   6,B   2)    158.94  0.005586   -0.24    158.70   
   156. D(B   5,B  10,B   6,B   3)    132.55 -0.009358    0.45    133.00   
   157. D(B   5,B  10,B   6,B  11)    169.44 -0.006658    0.20    169.64   
   158. D(B   2,B  10,B   5,B   0)    -85.95 -0.002429    0.08    -85.86   
   159. D(B   3,B  10,B   5,B   4)     -2.66  0.002831   -0.13     -2.78   
   160. D(B   3,B  10,B   5,B   0)    -65.63  0.005587   -0.28    -65.91   
   161. D(B   6,B  10,B   5,B   4)    -79.13 -0.003663    0.18    -78.95   
   162. D(B   6,B  10,B   5,B   0)   -142.10 -0.000907    0.03   -142.07   
   163. D(B   6,B  10,B   3,B   8)     98.46  0.002363   -0.14     98.32   
   164. D(B   6,B  10,B   3,B   0)    140.65  0.001960   -0.05    140.60   
   165. D(B   6,B  10,B   3,B  11)    -19.74  0.006799   -0.16    -19.90   
   166. D(B   6,B  10,B   3,B   2)    -88.01  0.003046   -0.13    -88.14   
   167. D(B   5,B  10,B   3,B   8)     26.22 -0.008602    0.35     26.57   
   168. D(B   5,B  10,B   3,B   6)    -72.25 -0.010965    0.49    -71.75   
   169. D(B   5,B  10,B   3,B   0)     68.40 -0.009006    0.44     68.84   
   170. D(B   5,B  10,B   3,B  11)    -91.99 -0.004166    0.33    -91.66   
   171. D(B   5,B  10,B   3,B   2)   -160.25 -0.007919    0.36   -159.89   
   172. D(B   0,B  10,B   2,B  11)   -144.16  0.009690   -0.37   -144.53   
   173. D(B   0,B  10,B   2,B   3)    -47.09  0.000267   -0.05    -47.13   
   174. D(B   0,B  10,B   5,B   4)     62.97 -0.002755    0.15     63.13   
   175. D(B   6,B  10,B   2,B  11)     -6.29  0.009801   -0.35     -6.64   
   176. D(B   6,B  10,B   2,B   3)     90.78  0.000378   -0.02     90.76   
   177. D(B   5,B  10,B   2,B   6)    -54.49 -0.001442    0.07    -54.42   
   178. D(B   5,B  10,B   6,B   9)   -140.36 -0.000599   -0.05   -140.41   
   179. D(B   5,B  10,B   2,B  11)    -60.78  0.008359   -0.27    -61.05   
   180. D(B   5,B  10,B   2,B   3)     36.29 -0.001065    0.05     36.34   
   181. D(B   2,B  10,B   0,B   3)     19.54  0.010581   -0.48     19.06   
   182. D(B   0,B  10,B   6,B   9)    154.10  0.003702   -0.29    153.81   
   183. D(B   2,B  10,B   0,B   5)    154.38  0.006122   -0.26    154.12   
   184. D(B   3,B  10,B   0,B   5)    134.84 -0.004459    0.22    135.06   
   185. D(B   6,B  10,B   0,B   3)    -71.03  0.006422   -0.25    -71.28   
   186. D(B   6,B  10,B   0,B   5)     63.81  0.001963   -0.04     63.78   
   187. D(B   3,B  11,B   9,B   6)    -37.22  0.022151   -0.58    -37.80   
   188. D(B   2,B  11,B   9,B   6)     11.07 -0.007813    0.11     11.18   
   189. D(B   2,B  11,B   6,B   3)     25.05  0.018770   -0.75     24.29   
   190. D(B   2,B  11,B   6,B  10)    -13.22  0.010356   -0.40    -13.62   
   191. D(B   2,B  11,B   6,B   9)   -176.69  0.006514   -0.24   -176.93   
   192. D(B   9,B  11,B   6,B   2)    176.69 -0.006514    0.24    176.93   
   193. D(B   9,B  11,B   6,B   3)   -158.26  0.012257   -0.52   -158.78   
   194. D(B   9,B  11,B   6,B  10)    163.47  0.003843   -0.16    163.31   
   195. D(B   9,B  11,B   3,B   6)     28.08 -0.051017    1.51     29.59   
   196. D(B   9,B  11,B   3,B   0)     40.19 -0.033217    0.84     41.03   
   197. D(B   9,B  11,B   3,B  10)     53.42 -0.029241    0.72     54.14   
   198. D(B   9,B  11,B   3,B   2)    154.89 -0.034337    0.93    155.82   
   199. D(B   6,B  11,B   3,B   8)    -79.89  0.022061   -0.73    -80.61   
   200. D(B   6,B  11,B   3,B   0)     12.11  0.017800   -0.66     11.44   
   201. D(B   6,B  11,B   3,B  10)     25.34  0.021776   -0.79     24.55   
   202. D(B   6,B  11,B   3,B   2)    126.81  0.016679   -0.58    126.23   
   203. D(B   3,B  11,B   2,B  10)     68.79  0.006215   -0.11     68.68   
   204. D(B   9,B  11,B   2,B   6)     -9.31  0.014712   -0.34     -9.65   
   205. D(B   9,B  11,B   2,B  10)     -0.67  0.013587   -0.27     -0.94   
   206. D(B   3,B  11,B   6,B   9)    158.26 -0.012257    0.52    158.78   
   207. D(B   9,B  11,B   2,B   3)    -69.46  0.007372   -0.16    -69.61   
   208. D(B   6,B  11,B   2,B  10)      8.65 -0.001124    0.07      8.72   
   209. D(B   6,B  11,B   2,B   3)    -60.15 -0.007339    0.19    -59.96   
    ----------------------------------------------------------------------------

Geometry step timings:
Preparation and reading OPT file:      0.000 s ( 0.526 %)
Internal coordinates            :      0.000 s ( 0.417 %)
B/P matrices and projection     :      0.008 s (37.515 %)
Hessian update/contruction      :      0.003 s (13.636 %)
Making the step                 :      0.008 s (39.230 %)
Converting the step to Cartesian:      0.000 s ( 1.549 %)
Storing new data                :      0.000 s ( 0.298 %)
Checking convergence            :      0.000 s ( 0.369 %)
Final printing                  :      0.001 s ( 6.451 %)
Total time                      :      0.021 s

Time for energy+gradient        :      0.111 s
Time for complete geometry iter :      0.134 s

         *************************************************************
         *                GEOMETRY OPTIMIZATION CYCLE   2            *
         *************************************************************
---------------------------------
CARTESIAN COORDINATES (ANGSTROEM)
---------------------------------
  B     1.920908   -0.940683    2.184310
  B    -1.003430   -2.229207   -1.792044
  B    -1.828284    1.881288    1.928262
  B    -1.614972    0.349707    1.512716
  B     0.829918   -2.356733   -1.167682
  B     2.645454    0.557635   -0.241230
  B     0.947500    1.683383   -1.030514
  B    -0.903796   -2.864773   -0.606938
  B    -2.524876   -1.997965    1.519388
  B     0.418677    2.365176   -2.046056
  B     1.586690    1.246155    0.690286
  B    -0.473790    2.306017   -0.950498

----------------------------
CARTESIAN COORDINATES (A.U.)
----------------------------
  NO LB    ZA    FRAG    MASS        X           Y           Z
   0 B   5.0000    0    10.810    3.629991   -1.777633    4.127748
   1 B   5.0000    0    10.810   -1.896209   -4.212590   -3.386472
   2 B   5.0000    0    10.810   -3.454956    3.555119    3.643887
   3 B   5.0000    0    10.810   -3.051855    0.660850    2.858618
   4 B   5.0000    0    10.810    1.568318   -4.453580   -2.206599
   5 B   5.0000    0    10.810    4.999183    1.053778   -0.455859
   6 B   5.0000    0    10.810    1.790515    3.181132   -1.947390
   7 B   5.0000    0    10.810   -1.707926   -5.413636   -1.146946
   8 B   5.0000    0    10.810   -4.771323   -3.775607    2.871227
   9 B   5.0000    0    10.810    0.791185    4.469535   -3.866486
  10 B   5.0000    0    10.810    2.998410    2.354892    1.304452
  11 B   5.0000    0    10.810   -0.895333    4.357740   -1.796181

      -----------------------------------------------------------      
     |                   =====================                   |     
     |                           x T B                           |     
     |                   =====================                   |     
     |                         S. Grimme                         |     
     |          Mulliken Center for Theoretical Chemistry        |     
     |                    University of Bonn                     |     
      -----------------------------------------------------------      

   * xtb version 6.6.1 (unknown) compiled by 'builduser@buildhost' on 2023-08-07

   xtb is free software: you can redistribute it and/or modify it under
   the terms of the GNU Lesser General Public License as published by
   the Free Software Foundation, either version 3 of the License, or
   (at your option) any later version.
   
   xtb is distributed in the hope that it will be useful,
   but WITHOUT ANY WARRANTY; without even the implied warranty of
   MERCHANTABILITY or FITNESS FOR A PARTICULAR PURPOSE.  See the
   GNU Lesser General Public License for more details.
   
   Cite this work as:
   * C. Bannwarth, E. Caldeweyher, S. Ehlert, A. Hansen, P. Pracht,
     J. Seibert, S. Spicher, S. Grimme, WIREs Comput. Mol. Sci., 2020, 11,
     e01493. DOI: 10.1002/wcms.1493
   
   for GFN2-xTB:
   * C. Bannwarth, S. Ehlert and S. Grimme., J. Chem. Theory Comput., 2019,
     15, 1652-1671. DOI: 10.1021/acs.jctc.8b01176
   for GFN1-xTB:
   * S. Grimme, C. Bannwarth, P. Shushkov, J. Chem. Theory Comput., 2017,
     13, 1989-2009. DOI: 10.1021/acs.jctc.7b00118
   for GFN0-xTB:
   * P. Pracht, E. Caldeweyher, S. Ehlert, S. Grimme, ChemRxiv, 2019, preprint.
     DOI: 10.26434/chemrxiv.8326202.v1
   for GFN-FF:
   * S. Spicher and S. Grimme, Angew. Chem. Int. Ed., 2020, 59, 15665-15673.
     DOI: 10.1002/anie.202004239
   
   for ALPB and GBSA implicit solvation:
   * S. Ehlert, M. Stahn, S. Spicher, S. Grimme, J. Chem. Theory Comput.,
     2021, 17, 4250-4261. DOI: 10.1021/acs.jctc.1c00471
   
   for DFT-D4:
   * E. Caldeweyher, C. Bannwarth and S. Grimme, J. Chem. Phys., 2017,
     147, 034112. DOI: 10.1063/1.4993215
   * E. Caldeweyher, S. Ehlert, A. Hansen, H. Neugebauer, S. Spicher,
     C. Bannwarth and S. Grimme, J. Chem. Phys., 2019, 150, 154122.
     DOI: 10.1063/1.5090222
   * E. Caldeweyher, J.-M. Mewes, S. Ehlert and S. Grimme, Phys. Chem. Chem. Phys.
     2020, 22, 8499-8512. DOI: 10.1039/D0CP00502A
   
   for sTDA-xTB:
   * S. Grimme and C. Bannwarth, J. Chem. Phys., 2016, 145, 054103.
     DOI: 10.1063/1.4959605
   
   in the mass-spec context:
   * V. Asgeirsson, C. Bauer and S. Grimme, Chem. Sci., 2017, 8, 4879.
     DOI: 10.1039/c7sc00601b
   * J. Koopman and S. Grimme, ACS Omega 2019, 4, 12, 15120-15133.
     DOI: 10.1021/acsomega.9b02011
   
   for metadynamics refer to:
   * S. Grimme, J. Chem. Theory Comput., 2019, 155, 2847-2862
     DOI: 10.1021/acs.jctc.9b00143
   
   for SPH calculations refer to:
   * S. Spicher and S. Grimme, J. Chem. Theory Comput., 2021, 17, 1701-1714
     DOI: 10.1021/acs.jctc.0c01306
   
   with help from (in alphabetical order)
   P. Atkinson, C. Bannwarth, F. Bohle, G. Brandenburg, E. Caldeweyher
   M. Checinski, S. Dohm, S. Ehlert, S. Ehrlich, I. Gerasimov, C. Hölzer
   A. Katbashev, J. Koopman, C. Lavigne, S. Lehtola, F. März, M. Müller,
   F. Musil, H. Neugebauer, J. Pisarek, C. Plett, P. Pracht, F. Pultar,
   J. Seibert, P. Shushkov, S. Spicher, M. Stahn, M. Steiner, T. Strunk,
   J. Stückrath, T. Rose, and J. Unsleber
   
 * started run on 2026/04/17 at 12:14:43.784     

           -------------------------------------------------
          |                Calculation Setup                |
           -------------------------------------------------

          program call               : /usr/bin/xtb random_d1.90_003_m3_XTB.xyz --grad -c 0 -u 2 -P 1 --namespace random_d1.90_003_m3 --input random_d1.90_003_m3_XTB.input.tmp --acc 0.200000
          calculation namespace      : random_d1.90_003_m3
          coordinate file            : random_d1.90_003_m3_XTB.xyz
          omp threads                :                     1

   ID    Z sym.   atoms
    1    5 B      1-12

molecular fragmentation (1/2 indicates fragments):
122222222222
# atoms in fragment 1/2:     1    11
 fragment masses (1/2) :       10.81      118.92
CMA distance (Bohr)    :   6.302
constraining FC (au)   :  0.0500

           -------------------------------------------------
          |                 G F N 2 - x T B                 |
           -------------------------------------------------

        Reference                      10.1021/acs.jctc.8b01176
      * Hamiltonian:
        H0-scaling (s, p, d)           1.850000    2.230000    2.230000
        zeta-weighting                 0.500000
      * Dispersion:
        s8                             2.700000
        a1                             0.520000
        a2                             5.000000
        s9                             5.000000
      * Repulsion:
        kExp                           1.500000    1.000000
        rExp                           1.000000
      * Coulomb:
        alpha                          2.000000
        third order                    shell-resolved
        anisotropic                    true
        a3                             3.000000
        a5                             4.000000
        cn-shift                       1.200000
        cn-exp                         4.000000
        max-rad                        5.000000

q/qsh data taken from xtbrestart
CAMM data taken from xtbrestart

          ...................................................
          :                      SETUP                      :
          :.................................................:
          :  # basis functions                  48          :
          :  # atomic orbitals                  48          :
          :  # shells                           24          :
          :  # electrons                        36          :
          :  max. iterations                   250          :
          :  Hamiltonian                  GFN2-xTB          :
          :  restarted?                       true          :
          :  GBSA solvation                  false          :
          :  PC potential                    false          :
          :  electronic temp.          300.0000000     K    :
          :  accuracy                    0.2000000          :
          :  -> integral cutoff          0.3198970E+02      :
          :  -> integral neglect         0.2000000E-08      :
          :  -> SCF convergence          0.2000000E-06 Eh   :
          :  -> wf. convergence          0.2000000E-04 e    :
          :  Broyden damping             0.4000000          :
          ...................................................

 iter      E             dE          RMSdq      gap      omega  full diag
   1    -13.4709607 -0.134710E+02  0.866E-01    0.18       0.0  T
   2    -13.4018634  0.690973E-01  0.167E+00    0.21       1.0  T
   3    -13.1840103  0.217853E+00  0.316E+00    0.01       1.0  T
   4    -13.4372874 -0.253277E+00  0.137E+00    0.20       1.0  T
   5    -13.4566975 -0.194102E-01  0.945E-01    0.10       1.0  T
   6    -13.3713065  0.853910E-01  0.189E+00    0.20       1.0  T
   7    -13.4689115 -0.976050E-01  0.477E-01    0.23       1.0  T
   8    -13.4711686 -0.225703E-02  0.388E-01    0.24       1.0  T
   9    -13.4713004 -0.131863E-03  0.343E-01    0.26       1.0  T
  10    -13.4711611  0.139367E-03  0.360E-01    0.25       1.0  T
  11    -13.4712255 -0.644035E-04  0.354E-01    0.25       1.0  T
  12    -13.4717559 -0.530482E-03  0.301E-01    0.25       1.0  T
  13    -13.4727843 -0.102833E-02  0.219E-01    0.25       1.0  T
  14    -13.4728196 -0.353269E-04  0.214E-01    0.25       1.0  T
  15    -13.4731795 -0.359908E-03  0.190E-01    0.25       1.0  T
  16    -13.4732625 -0.829895E-04  0.180E-01    0.25       1.0  T
  17    -13.4736368 -0.374335E-03  0.136E-01    0.24       1.0  T
  18    -13.4736284  0.839155E-05  0.130E-01    0.24       1.0  T
  19    -13.4737578 -0.129356E-03  0.104E-01    0.23       1.0  T
  20    -13.4738023 -0.444545E-04  0.865E-02    0.23       1.0  T
  21    -13.4738513 -0.490429E-04  0.682E-02    0.23       1.0  T
  22    -13.4738547 -0.341677E-05  0.665E-02    0.23       1.0  T
  23    -13.4739097 -0.550284E-04  0.355E-02    0.22       1.0  T
  24    -13.4739271 -0.173918E-04  0.168E-02    0.22       1.7  T
  25    -13.4739310 -0.387943E-05  0.843E-03    0.22       3.4  T
  26    -13.4739320 -0.100163E-05  0.400E-03    0.22       7.2  T
  27    -13.4739323 -0.237680E-06  0.146E-03    0.22      19.8  T
  28    -13.4739323 -0.306423E-07  0.538E-04    0.22      53.7  T
  29    -13.4739323 -0.512968E-08  0.640E-05    0.22     450.7  T
[...]
------------------------------------------------------------------------
 total:
 * wall-time:     0 d,  0 h,  0 min,  0.050 sec
 *  cpu-time:     0 d,  0 h,  0 min,  0.049 sec
 * ratio c/w:     0.983 speedup
 SCF:
 * wall-time:     0 d,  0 h,  0 min,  0.035 sec
 *  cpu-time:     0 d,  0 h,  0 min,  0.035 sec
 * ratio c/w:     0.998 speedup


-------------------------   --------------------
FINAL SINGLE POINT ENERGY       -14.192155387860
-------------------------   --------------------


-------------
DIPOLE MOMENT
-------------
                                X             Y             Z
Total Dipole Moment    :      0.75800      -0.26900      -0.18300
                        -----------------------------------------
Magnitude (a.u.)       :      0.82487
Magnitude (Debye)      :      2.09666


------------------
CARTESIAN GRADIENT
------------------

   1   B   :   -0.004162080    0.001391076    0.015641492
   2   B   :   -0.008831546    0.011140631    0.009224231
   3   B   :    0.012597847   -0.023461899   -0.008103030
   4   B   :   -0.016494648    0.011858169    0.007212760
   5   B   :   -0.005297007    0.001868980   -0.007756936
   6   B   :    0.002848862   -0.003992037   -0.009970423
   7   B   :   -0.015892295    0.002918676    0.010561948
   8   B   :    0.014051019   -0.010228566   -0.009587395
   9   B   :    0.003488873   -0.012815222   -0.003286802
  10   B   :    0.009184691    0.002450030   -0.001756629
  11   B   :    0.007984664    0.005621308    0.000098730
  12   B   :    0.000521618    0.013248853   -0.002277945

Difference to translation invariance:
           :   -0.0000000000   -0.0000000000   -0.0000000000

Difference to rotation invariance:
           :   -0.0000000050   -0.0000000108    0.0000000055

Norm of the Cartesian gradient     ...    0.0577014139
RMS gradient                       ...    0.0096169023
MAX gradient                       ...    0.0234618991
------------------------------------------------------------------------------
                         ORCA GEOMETRY RELAXATION STEP
------------------------------------------------------------------------------

Reading the OPT-File                    .... done
Getting information on internals        .... done
Copying old internal coords+grads       .... done
Making the new internal coordinates     .... (2022 redundants) done
Validating the new internal coordinates .... (2022 redundants) done
Calculating the B-matrix                .... done
Calculating the G,G- and P matrices     .... done
Transforming gradient to internals      .... done
Projecting the internal gradient        .... done
Number of atoms                         ....  12
Number of internal coordinates          .... 111
Current Energy                          ....   -14.192155388 Eh
Current gradient norm                   ....     0.057701414 Eh/bohr
Maximum allowed component of the step   ....  0.300
Current trust radius                    ....  0.467
Updating the Hessian (BFGS)             .... done
Forming the augmented Hessian           .... done
Diagonalizing the augmented Hessian     .... done
Last element of RFO vector              ....  0.894800538
Lowest eigenvalues of augmented Hessian:
 -0.006743283  0.000105524  0.000368312  0.002097822  0.003801385
Length of the computed step             ....  0.498956028
Warning: the length of the step is outside the trust region - taking restricted step instead
The input lambda is                     ....    -0.000931
   iter:   5  x=   -0.007156  g=   57.863545 f(x)=     0.074679
   iter:  10  x=   -0.007581  g=   32.679893 f(x)=    -0.000000
The output lambda is                    ....    -0.007581 (10 iterations)
The final length of the internal step   ....  0.466666667
Converting the step to Cartesian space:
 Initial RMS(Int)=    0.0442940398
Transforming coordinates:
 Iter   0:  RMS(Cart)=    0.0530833189 RMS(Int)=    0.5930055290
 Iter   5:  RMS(Cart)=    0.0000023873 RMS(Int)=    0.0000111294
done
Storing new coordinates                 .... done
The predicted energy change is          ....    -0.004099662
Previously predicted energy change      ....    -0.002877088
Actually observed energy change         ....    -0.001590120
Ratio of predicted to observed change   ....     0.552683872
New trust radius                        ....     0.466666667

                                .--------------------.
          ----------------------|Geometry convergence|-------------------------
          Item                value                   Tolerance       Converged
          ---------------------------------------------------------------------
          Energy change      -0.0015901202            0.0000010000      NO
          RMS gradient        0.0033108352            0.0000300000      NO
          MAX gradient        0.0164266574            0.0001000000      NO
          RMS step            0.0442940398            0.0006000000      NO
          MAX step            0.1874933005            0.0010000000      NO
          -------------------------------------------------------------------------
          ........................................................
          Max(Bonds)      0.0992      Max(Angles)    3.30
          Max(Dihed)        5.45      Max(Improp)    0.00
          ---------------------------------------------------------------------

The optimization has not yet converged - more geometry cycles are needed


    ---------------------------------------------------------------------------
                         Redundant Internal Coordinates
                            (Angstroem and degrees)

        Definition                    Value    dE/dq     Step     New-Value
    ----------------------------------------------------------------------------
     1. B(B   3,B   2)                1.5190  0.003447 -0.0206    1.4984   
     2. B(B   4,B   1)                1.4891  0.001373  0.0052    1.4943   
     3. B(B   4,B   0)                1.5689 -0.001272  0.0038    1.5727   
     4. B(B   5,B   0)                1.5697  0.000992 -0.0286    1.5411   
     5. B(B   6,B   5)                1.5154  0.001180 -0.0474    1.4680   
     6. B(B   7,B   1)                1.5104 -0.014973 -0.0026    1.5078   
     7. B(B   7,B   0)                1.8767 -0.002262  0.0134    1.8902   
     8. B(B   8,B   7)                1.5411 -0.002422  0.0341    1.5752   
     9. B(B   8,B   3)                1.5472  0.010940 -0.0124    1.5348   
    10. B(B   9,B   6)                1.5391 -0.003838  0.0011    1.5402   
    11. B(B  10,B   5)                1.6535 -0.000576 -0.0282    1.6253   
    12. B(B  10,B   3)                1.8793  0.003014 -0.0267    1.8527   
    13. B(B  10,B   2)                1.6732 -0.006453  0.0405    1.7137   
    14. B(B  10,B   6)                1.9031 -0.005847 -0.0135    1.8896   
    15. B(B  10,B   0)                1.6669  0.000657 -0.0282    1.6387   
    16. B(B  11,B   9)                1.5126  0.000835  0.0024    1.5150   
    17. B(B  11,B   2)                1.5796  0.016427 -0.0992    1.4804   
    18. A(B   5,B   0,B   7)          170.19  0.001961    0.33    170.52   
    19. A(B   7,B   0,B  10)          111.39  0.002155    0.26    111.65   
    20. A(B   5,B   0,B  10)           61.36 -0.000534    0.05     61.40   
    21. A(B   4,B   0,B   7)           68.47 -0.001668   -1.71     66.76   
    22. A(B   4,B   0,B   5)          115.71  0.000255    1.78    117.50   
    23. A(B   4,B   0,B  10)          159.51 -0.001873    3.30    162.81   
    24. A(B   4,B   1,B   7)           81.35  0.001151   -1.21     80.14   
    25. A(B   3,B   2,B  10)           71.95  0.002184   -1.94     70.01   
    26. A(B  10,B   2,B  11)          108.81 -0.002113    0.18    108.99   
    27. A(B   3,B   2,B  11)          174.68 -0.000340    1.85    176.53   
    28. A(B   2,B   3,B  10)           57.83 -0.003463    2.56     60.40   
    29. A(B   8,B   3,B  10)           81.88 -0.000601   -2.01     79.87   
    30. A(B   2,B   3,B   8)          139.67 -0.004081    0.65    140.31   
    31. A(B   0,B   4,B   1)          102.11 -0.004034    2.55    104.66   
    32. A(B   0,B   5,B   6)          135.85 -0.002394    1.26    137.11   
    33. A(B   6,B   5,B  10)           73.68 -0.002566    1.09     74.76   
    34. A(B   0,B   5,B  10)           62.22  0.000192    0.15     62.37   
    35. A(B   9,B   6,B  10)          117.01  0.012875   -2.17    114.84   
    36. A(B   5,B   6,B  10)           56.49  0.001042   -0.06     56.44   
    37. A(B   0,B   7,B   1)           88.54  0.001633    2.58     91.12   
    38. A(B   0,B   7,B   8)           81.47  0.000757   -2.82     78.65   
    39. A(B   3,B   8,B   7)          154.44 -0.002040    2.37    156.81   
    40. A(B   6,B   9,B  11)           98.91 -0.010065    0.82     99.73   
    41. A(B   0,B  10,B   2)          160.69  0.000923    1.61    162.30   
    42. A(B   3,B  10,B   6)          142.08 -0.001330   -1.08    141.00   
    43. A(B   2,B  10,B   6)           92.93 -0.002757   -0.15     92.78   
    44. A(B   0,B  10,B   6)          106.23  0.001853   -1.22    105.02   
    45. A(B   3,B  10,B   5)          163.58 -0.000032    1.44    165.02   
    46. A(B   5,B  10,B   6)           49.83  0.001524   -1.03     48.80   
    47. A(B   2,B  10,B   5)          142.58 -0.001256   -0.89    141.69   
    48. A(B   0,B  10,B   5)           56.43  0.000342   -0.20     56.23   
    49. A(B   2,B  10,B   3)           50.22  0.001278   -0.63     49.59   
    50. A(B   0,B  10,B   3)          110.50 -0.000359    2.04    112.54   
    51. A(B   2,B  11,B   9)          122.09  0.002137    1.46    123.55   
    52. D(B  10,B   3,B   2,B  11)     99.05  0.000195   -5.32     93.72   
    53. D(B   8,B   3,B   2,B  10)      3.19  0.000488    3.53      6.72   
    54. D(B   8,B   3,B   2,B  11)    102.23  0.000683   -1.79    100.44   
    55. D(B   1,B   4,B   0,B   7)    -32.06  0.000140    1.71    -30.35   
    56. D(B   0,B   4,B   1,B   7)     38.36  0.002811   -1.75     36.61   
    57. D(B   1,B   4,B   0,B   5)    157.62 -0.001432    1.01    158.63   
    58. D(B   1,B   4,B   0,B  10)   -125.75 -0.002023    4.13   -121.62   
    59. D(B   6,B   5,B   0,B  10)      2.76  0.000573   -0.76      1.99   
    60. D(B  10,B   5,B   0,B   7)     43.92  0.001272   -2.16     41.76   
    61. D(B  10,B   5,B   0,B   4)    157.17 -0.002174    3.14    160.31   
    62. D(B   6,B   5,B   0,B   7)     46.68  0.001845   -2.92     43.76   
    63. D(B   6,B   5,B   0,B   4)    159.93 -0.001601    2.38    162.31   
    64. D(B  10,B   6,B   5,B   0)     -2.54 -0.000566    0.69     -1.85   
    65. D(B   1,B   7,B   0,B   5)    147.92 -0.000159    3.77    151.69   
    66. D(B   0,B   7,B   1,B   4)    -30.49 -0.002699    1.44    -29.05   
    67. D(B   1,B   7,B   0,B   4)     30.79  0.003774   -1.40     29.39   
    68. D(B   8,B   7,B   0,B   5)    -36.51 -0.000594    3.46    -33.05   
    69. D(B   8,B   7,B   0,B   4)   -153.64  0.003339   -1.70   -155.35   
    70. D(B   1,B   7,B   0,B  10)   -171.24  0.001460    1.91   -169.33   
    71. D(B   7,B   8,B   3,B  10)      5.93 -0.000317    2.26      8.19   
    72. D(B   7,B   8,B   3,B   2)      3.20 -0.000635   -0.64      2.57   
    73. D(B   3,B   8,B   1,B   4)    -41.57 -0.003131   -1.27    -42.83   
    74. D(B   3,B   8,B   7,B   0)     -7.95 -0.000236   -2.95    -10.90   
    75. D(B  11,B   9,B   5,B   0)     -3.17 -0.001274    0.02     -3.15   
    76. D(B  11,B   9,B   6,B  10)     -0.67 -0.000383   -0.62     -1.28   
    77. D(B  11,B   9,B   5,B  10)     -1.22 -0.000480    0.16     -1.06   
    78. D(B   3,B  10,B   0,B   4)     81.65 -0.000574   -3.20     78.45   
    79. D(B   2,B  10,B   0,B   7)     -1.42 -0.001350    3.11      1.70   
    80. D(B   3,B  10,B   6,B   9)     15.66 -0.000780    2.48     18.13   
    81. D(B   3,B  10,B   0,B   5)    168.82  0.000001   -0.93    167.88   
    82. D(B   3,B  10,B   6,B   5)   -163.55 -0.000665    1.22   -162.33   
    83. D(B   2,B  10,B   0,B   5)    171.29 -0.000175    3.53    174.83   
    84. D(B   2,B  10,B   0,B   4)     84.13 -0.000750    1.27     85.39   
    85. D(B   0,B  10,B   6,B   9)   -179.06  0.000367    0.71   -178.35   
    86. D(B   0,B  10,B   6,B   5)      1.73  0.000481   -0.55      1.19   
    87. D(B   6,B  10,B   5,B   0)    178.00 -0.000528    0.59    178.59   
    88. D(B   3,B  10,B   5,B   6)    141.99  0.000511   -5.03    136.96   
    89. D(B   3,B  10,B   5,B   0)    -40.01 -0.000017   -4.45    -44.45   
    90. D(B   2,B  10,B   5,B   6)      6.72  0.000269   -3.42      3.30   
    91. D(B   0,B  10,B   5,B   6)   -178.00  0.000528   -0.59   -178.59   
    92. D(B   6,B  10,B   3,B   2)    -16.16  0.001503   -4.02    -20.18   
    93. D(B   5,B  10,B   3,B   8)     35.90  0.000721    3.96     39.86   
    94. D(B   5,B  10,B   3,B   2)   -146.19  0.000224    1.83   -144.35   
    95. D(B   2,B  10,B   3,B   8)   -177.92  0.000497    2.13   -175.79   
    96. D(B   0,B  10,B   3,B   8)      1.02  0.000641    0.21      1.23   
    97. D(B   2,B  10,B   5,B   0)   -175.28 -0.000259   -2.83   -178.11   
    98. D(B   0,B  10,B   3,B   2)    178.93  0.000145   -1.92    177.02   
    99. D(B   6,B  10,B   2,B   3)    170.14  0.000630   -2.56    167.58   
   100. D(B   5,B  10,B   2,B  11)     -9.45  0.000603    3.54     -5.91   
   101. D(B   5,B  10,B   2,B   3)    165.00  0.000321    0.28    165.28   
   102. D(B   3,B  10,B   2,B  11)   -174.45  0.000282    3.26   -171.19   
   103. D(B   0,B  10,B   2,B  11)   -177.47  0.000546   -2.20   -179.66   
   104. D(B   2,B  10,B   6,B   5)   -175.91  0.000270   -1.75   -177.67   
   105. D(B   2,B  10,B   6,B   9)      3.29  0.000156   -0.50      2.79   
   106. D(B   0,B  10,B   2,B   3)     -3.02  0.000264   -5.45     -8.48   
   107. D(B   5,B  10,B   0,B   4)    -87.17 -0.000575   -2.27    -89.44   
   108. D(B   3,B  10,B   0,B   7)     -3.89 -0.001174   -1.35     -5.24   
   109. D(B   2,B  11,B   9,B   6)     -2.85  0.000866    1.00     -1.85   
   110. D(B   9,B  11,B   2,B  10)      5.46 -0.000918   -1.72      3.74   
   111. D(B   9,B  11,B   2,B   3)    -91.83 -0.001222    4.76    -87.07   
    ----------------------------------------------------------------------------

Geometry step timings:
Preparation and reading OPT file:      0.000 s ( 0.681 %)
Internal coordinates            :      0.000 s ( 0.852 %)
B/P matrices and projection     :      0.001 s (20.303 %)
Hessian update/contruction      :      0.001 s (14.035 %)
Making the step                 :      0.002 s (41.543 %)
Converting the step to Cartesian:      0.000 s ( 3.594 %)
Storing new data                :      0.000 s ( 1.073 %)
Checking convergence            :      0.000 s ( 1.158 %)
Final printing                  :      0.001 s (16.760 %)
Total time                      :      0.006 s

Time for energy+gradient        :      0.072 s
Time for complete geometry iter :      0.079 s




    ----------------------------------------------------------------------------
                                  WARNING !!!
       The optimization did not converge but reached the maximum number of
       optimization cycles.
       Please check your results very carefully.
    ----------------------------------------------------------------------------



--------------------------------
SUGGESTED CITATIONS FOR THIS RUN
--------------------------------

Below you find a list of papers that are relevant to this ORCA run
We neither can nor want to force you to cite these papers, but we appreciate if you do
You receive ORCA, which is the product of decades of hard work by many enthusiastic individuals, for free
The only thing we kindly ask in return is that you cite our papers,
We deeply appreciate it, if you show your appreciation for ORCA by not just citing the generic ORCA reference.

Please note that relegating all ORCA citations to the supporting information does *not* help us.
SI sections are not indexed - citations you put there will not count into any citation statistics
But we need these citations in order to attract the funding resources that allow us to do what we are doing

Therefore, if you are a happy ORCA user, please consider citing a few of the papers listed below in the main body of your paper

In addition to the list printed below, the program has created the file random_d1.90_003_m3.bibtex that contains the list in bibtex format
You can import this file easily into all common literature databanks and citation aid programs

It goes without saying that in many instances, there are alternative algorithms to achieve similar
results as the ones you have gotten from ORCA. It is, of course, also the case that in some instances
ORCA just re-implements algorithms worked out by others. We are fully aware of that and we are also
fully appreciative of our colleagues work. Hence this citation list should not be read as indicating
that the listed papers, which are focused on our own work, are the only ones worth citing. It simply
meant to make it easier for users to cite ORCA specific papers. It is not a substitute for doing your
own literature research and citing the relevant literature in a scientifically appropriate manner.

List of essential papers. We consider these as the minimum necessary citations

  1. Bannwarth, C.; Ehlert, S.; Grimme, S.
     GFN2-xTB—An Accurate and Broadly Parametrized Self-Consistent Tight-Binding Quantum Chemical Method with Multipole Electrostatics and Density-Dependent Dispersion Contributions
     J. Chem. Theory Comput. 2019 15(3), 1652-1671
     doi.org/10.1021/acs.jctc.8b01176
  2. Neese, F.
     Software update: the ORCA program system, version 6.0
     WIRES Comput. Molec. Sci. 2025 15(1), e70019
     doi.org/10.1002/wcms.70019

List of papers to cite with high priority. The work reported in these papers was absolutely
necessary for this run to complete.
Our perspective: the developers of density functionals and basis sets usually get cited in chemistry papers
Good! But without the algorithms to do something with them, the functionals or basis sets would not do anything.
Hence, in our opinion, the algorithm design and method developments papers are equally worthy of getting cited

  1. Bannwarth, C.; Caldeweyher, E.; Ehlert, S.; Hansen, A.; Pracht, P.; Seibert, J.; Spicher, S.; Grimme, S.
     Extended tight-binding quantum chemistry methods
     WIRES Comput. Molec. Sci. 2020 11(2), e1493
     doi.org/10.1002/wcms.1493

List of suggested additional citations. These are papers that are important in the 'surrounding' of 
of this run, or papers that preceded the highly important papers. If you like your results we are grateful for a citation.

  1. Neese, F.
     The ORCA program system
     WIRES Comput. Molec. Sci. 2012 2(1), 73-78
     doi.org/10.1002/wcms.81
  2. Neese, F.
     Software update: the ORCA program system, version 4.0
     WIRES Comput. Molec. Sci. 2018 8(1), 1-6
     doi.org/10.1002/wcms.1327
  3. Neese, F.; Wennmohs, F.; Becker, U.; Riplinger, C.
     The ORCA quantum chemistry program package
     J. Chem. Phys. 2020 152(22), 224108
     doi.org/10.1063/5.0004608
  4. Neese, F.
     Software update: The ORCA program system—Version 5.0
     WIRES Comput. Molec. Sci. 2022 12(1), e1606
     doi.org/10.1002/wcms.1606

List of optional additional citations

  1. Neese, F.
     Approximate second-order SCF convergence for spin unrestricted wavefunctions
     Chem. Phys. Lett. 2000 325(1-3), 93-98
     doi.org/10.1016/s0009-2614(00)00662-x

Timings for individual modules:

Sum of individual times          ...        3.765 sec (=   0.063 min)
Geometry relaxation              ...        0.631 sec (=   0.011 min)  16.8 %
XTB module                       ...        3.134 sec (=   0.052 min)  83.2 %
                             ****ORCA TERMINATED NORMALLY****
TOTAL RUN TIME: 0 days 0 hours 0 minutes 4 seconds 296 msec
