
                                 *****************
                                 * O   R   C   A *
                                 *****************

                                            #,                                       
                                            ###                                      
                                            ####                                     
                                            #####                                    
                                            ######                                   
                                           ########,                                 
                                     ,,################,,,,,                         
                               ,,#################################,,                 
                          ,,##########################################,,             
                       ,#########################################, ''#####,          
                    ,#############################################,,   '####,        
                  ,##################################################,,,,####,       
                ,###########''''           ''''###############################       
              ,#####''   ,,,,##########,,,,          '''####'''          '####       
            ,##' ,,,,###########################,,,                        '##       
           ' ,,###''''                  '''############,,,                           
         ,,##''                                '''############,,,,        ,,,,,,###''
      ,#''                                            '''#######################'''  
     '                                                          ''''####''''         
             ,#######,   #######,   ,#######,      ##                                
            ,#'     '#,  ##    ##  ,#'     '#,    #''#        ,####,    ,#,          
            ##       ##  ##   ,#'  ##            #'  '#       #'       ,# #          
            ##       ##  #######   ##           ,######,      #####,      #          
            '#,     ,#'  ##    ##  '#,     ,#' ,#      #,     #,   #      #          
             '#######'   ##     ##  '#######'  #'      '#     '####' #    #          



                #########################################################
                #                        -***-                          #
                #          Department of theory and spectroscopy        #
                #                                                       #
                #                      Frank Neese                      #
                #                                                       #
                #     Directorship, Architecture, Infrastructure        #
                #                    SHARK, DRIVERS                     #
                #        Core code/Algorithms in most modules           #
                #                                                       #
                #        Max Planck Institute fuer Kohlenforschung      #
                #                Kaiser Wilhelm Platz 1                 #
                #                 D-45470 Muelheim/Ruhr                 #
                #                      Germany                          #
                #                                                       #
                #                  All rights reserved                  #
                #                        -***-                          #
                #########################################################


                         Program Version 6.1.1  -  RELEASE   -
                                (GIT: $487d211c$)
                          ($2025-11-21 10:33:24 +0100$)
                                                                         
                                  - NO-DMRG VERSION -                    
                                                                         


 With contributions from (in alphabetic order):
[Max-Planck-Institut fuer Kohlenforschung]                               
  Daniel Aravena         : Magnetic Suceptibility                        
  Michael Atanasov       : Ab Initio Ligand Field Theory (pilot matlab implementation)
  Alexander A. Auer      : GIAO ZORA, VPT2 properties, NMR spectrum      
  Ute Becker             : All parallelization in ORCA, NUMFREQ, NUMCALC 
  Giovanni Bistoni       : ED, misc. LED, open-shell LED, HFLD           
  Dmytro Bykov           : pre 5.0 version of the SCF Hessian            
  Marcos Casanova-Páez   : Triplet and SCS-CIS(D). UHF-(DLPNO)-IP/EA/STEOM-CCSD. UHF-CVS-IP/STEOM-CCSD   
  Vijay G. Chilkuri      : MRCI spin determinant printing, contributions to CSF-ICE 
  Pauline Colinet        : FMM embedding                                 
  Dipayan Datta          : RHF DLPNO-CCSD density                        
  Achintya Kumar Dutta   : EOM-CC, STEOM-CC                              
  Nicolas Foglia         : Exact transition moments, OPA infrastructure, MCD improvements    
  Dmitry Ganyushin       : Spin-Orbit,Spin-Spin,Magnetic field MRCI      
  Miquel Garcia-Rates    : C-PCM and meta-GGA Hessian, CCSD/C-PCM, Gaussian charge scheme 
  Tiago L. C. Gouveia    : GS-ROHF, GS-ROCIS                             
  Yang Guo               : DLPNO-NEVPT2, F12-NEVPT2, CIM, IAO-localization        
  Andreas Hansen         : Spin unrestricted coupled pair/coupled cluster methods 
  Ingolf Harden          : AUTO-CI MPn and infrastructure                
  Benjamin Helmich-Paris : MC-RPA, TRAH-(SCF,CASSCF), AVAS, COSX integrals, SCF dyn. polar., MC-PDFT, srDFT 
  Lee Huntington         : MR-EOM, pCC                                   
  Robert Izsak           : Overlap fitted RIJCOSX, COSX-SCS-MP3, EOM     
  Riya Kayal             : Wick's Theorem for AUTO-CI, AUTO-CI UHF-CCSDT 
  Emily Kempfer          : AUTO-CI RHF CISDT and CCSDT, approximate NEVPT4
  Christian Kollmar      : KDIIS, OOCD, Brueckner-CCSD(T), CCSD density, CASPT2, CASPT2-K, improved NEVPT2 
  Axel Koslowski         : Symmetry handling                             
  Simone Kossmann        : meta-GGA functionals, TD-DFT gradient, OOMP2, (MP2 Hessian; deprecated post 5.0) 
  Lucas Lang             : DCDCAS, Hyperfine gauge corrections, ICE-SOC+SSC
  Marvin Lechner         : AUTO-CI (C++ implementation), FIC-MRCC        
  Spencer Leger          : CASSCF response                               
  Dagmar Lenk            : GEPOL surface, SMD, ORCA-2-JSON               
  Dimitrios Liakos       : Extrapolation schemes; Compound Job, Property file
  Dimitrios Manganas     : Further ROCIS development; embedding schemes. LFT, Crystal Embedding 
  Dimitrios Pantazis     : SARC Basis sets                               
  Anastasios Papadopoulos: AUTO-CI, single reference methods and gradients 
  Taras Petrenko         : pre 6.0 DFT Hessian and TD-DFT gradient,  ECA, NRVS 
  Petra Pikulova         : Analytic Raman intensities                    
  Peter Pinski           : DLPNO-MP2, DLPNO-MP2 Gradient                 
  Shashank Vittal Rao    : ES-AILFT, MagRelax                            
  Christoph Reimann      : Effective Core Potentials                     
  Marius Retegan         : Local ZFS, SOC                                
  Christoph Riplinger    : Optimizer, TS searches, QM/MM, DLPNO-CCSD(T), (RO)-DLPNO pert. Triples 
  Michael Roemelt        : Original ROCIS implementation, recursive CI coupling coefficients
  Masaaki Saitow         : Open-shell DLPNO-CCSD energy and density      
  Barbara Sandhoefer     : DKH picture change effects                    
  Yorick L. A. Schmerwitz: GMF and freeze-and-release deltaSCF, NEB S-IDPP initial path                    
  Kantharuban Sivalingam : CASSCF convergence/infrastructure, NEVPT2, NEVPT3, NEVPT4(SD), FIC-MRCI and CEPA variants
  Bernardo de Souza      : ESD, SOC TD-DFT                               
  Georgi L. Stoychev     : AutoAux, RI-MP2 NMR, DLPNO-MP2 response, X2C  
  Van Anh Tran           : RI-MP2 g-tensors                              
  Willem Van den Heuvel  : Paramagnetic NMR                              
  Zikuan Wang            : NOTCH, Electric field optimization            
  Frank Wennmohs         : Technical directorship and infrastructure     
  Hang Xu                : AUTO-CI-Response properties                   
                                                                         
[FACCTs GmbH]                                                            
  Markus Bursch, Nicolas Foglia, Miquel Garcia-Rates, Ingolf Harden, Hagen Neugebauer, Anastasios Papadopoulos, 
  Christoph Riplinger, Bernardo de Souza, Georgi L. Stoychev                                                    
                                                                 
  APM, various basis sets, CI-OPT, improved COSX, DLPNO-Multilevel,           
  DOCKER, DRACO, updates on ESD, Fragmentator, GOAT, IRC, LR-CPCM, L-BFGS, MBIS, meta-GGA TD-DFT gradient, ML-optimized integration grids, 
  MM, NACMEs, nearIR, NEB, NEB-TS, NL-DFT gradient (VV10), 2- and 3-layer-ONIOM, interface openCOSMO-RS, QMMM,   
  Crystal-QMMM, RESP, rigid body optimization, SF, symmetry and pop. for TD-DFT, various functionals, SOLVATOR                                   
                                                                         
[Other institutions]                                                     
  V. Asgeirsson          : NEB                                           
  Christoph Bannwarth    : sTDA-DFT, sTD-DFT, PBEh-3c, B97-3c, D3        
  Giovanni Bistoni       : ETS/NOCV, ADLD/ADEX, COVALED                  
  Martin Brehm           : Molecular dynamics                            
  Ronald Cardenas        : ETS/NOCV                                      
  Martina Colucci        : COVALED                                       
  Sebastian Ehlert       : rSCAN, r2SCAN, r2SCAN-3c, D4, dhf basis sets  
  Marvin Friede          : D4 for Fr, Ra, Ac-Lr                          
  Lars Goerigk           : TD-DFT with DH, B97 family of functionals     
  Stefan Grimme          : VdW corrections, initial TS optimization, DFT functionals, gCP, sTDA/sTD-DF 
  Waldemar Hujo          : DFT-NL                                        
  H. Jonsson             : NEB                                           
  Holger Kruse           : gCP                                           
  Marcel Mueller         : wB97X-3c, vDZP basis set                      
  Hagen Neugebauer       : wr2SCAN, Native XTB                           
  Gianluca Regni         : ADLD/ADEX                                     
  Tobias Risthaus        : pre 6.0 range-separated hybrid DFT and stability analysis
  Lukas Wittmann         : regularized MP2, r2SCAN double-hybrids, wr2SCAN        
                                                                         
We gratefully acknowledge several colleagues who have allowed us to      
interface, adapt or use parts of their codes:                            
  Ed Valeev, F. Pavosevic, A. Kumar             : LibInt (2-el integral package), F12 methods 
  Garnet Chan, S. Sharma, J. Yang, R. Olivares  : DMRG                   
  Ulf Ekstrom                                   : XCFun DFT Library      
  Mihaly Kallay                                 : mrcc  (arbitrary order and MRCC methods)
  Frank Weinhold                                : gennbo (NPA and NBO analysis)           
  Simon Mueller                                 : openCOSMO-RS                            
  Christopher J. Cramer and Donald G. Truhlar   : smd solvation model                     
  S Lehtola, MJT Oliveira, MAL Marques          : LibXC Library                           
  Liviu Ungur et al                             : ANISO software                          


 Your calculation uses the libint2 library for the computation of 2-el integrals
 For citations please refer to: http://libint.valeyev.net

 Your ORCA version has been built with support for libXC version: 7.0.0
 For citations please refer to: https://libxc.gitlab.io

 This ORCA versions uses:
   CBLAS   interface :  Fast vector & matrix operations
   LAPACKE interface :  Fast linear algebra routines
   SCALAPACK package :  Parallel linear algebra routines
   Shared memory     :  Shared parallel matrices
   BLAS/LAPACK       :  OpenBLAS 0.3.29  USE64BITINT DYNAMIC_ARCH NO_AFFINITY Zen SINGLE_THREADED
        Core in use  :  Zen
   Copyright (c) 2011-2014, The OpenBLAS Project


  ***********************************
  * Starting time: Fri Apr 17 12:14:37 2026
  * Host name:     vmi3233575
  * Process ID:    337383
  * Working dir.:  /root/orca_b12_vps_pack/jobs/01_xtb/mult_3
  ***********************************

NOTE: MaxCore=500 MB was set to SCF,MP2,MDCI,CIPSI,MRCI,RASCI and CIS
      => If you want to overwrite this, your respective input block should be placed after the MaxCore statement


***************************************
The coordinates will be read from file: ../../../starts/random_d1.70_003.xyz
***************************************


Your calculation utilizes the semiempirical GFN2-xTB method
Please cite in your paper:
Bannwarth, C.; Ehlert S.; Grimme, S. J. Chem. Theory Comput. 2019, 15, 1652.
   

================================================================================

================================================================================
                                        WARNINGS
                       Please study these warnings very carefully!
================================================================================


WARNING: Geometry Optimization
  ===> : Switching off AutoStart
         For restart on a previous wavefunction, please use MOREAD

WARNING: Found dipole moment calculation with XTB calculation
  ===> : Switching off dipole moment calculation

Environment variable XTBEXE for xtb has been set!

================================================================================
                                       INPUT FILE
================================================================================
NAME = random_d1.70_003_m3.inp
|  1> ! GFN2-xTB TightSCF TightOpt
|  2> 
|  3> %pal
|  4>   nprocs 1
|  5> end
|  6> 
|  7> %maxcore 500
|  8> 
|  9> * xyzfile 0 3 ../../../starts/random_d1.70_003.xyz
| 10> 
| 11>                          ****END OF INPUT****
================================================================================

                       *****************************
                       * Geometry Optimization Run *
                       *****************************

Geometry optimization settings:
Update method            Update   .... BFGS
Choice of coordinates    CoordSys .... (2022) Redundant Internals
Initial Hessian          InHess   .... Almloef's Model
Max. no of cycles        MaxIter  .... 50

Convergence Tolerances:
Energy Change            TolE     ....  1.0000e-06 Eh
Max. Gradient            TolMAXG  ....  1.0000e-04 Eh/bohr
RMS Gradient             TolRMSG  ....  3.0000e-05 Eh/bohr
Max. Displacement        TolMAXD  ....  1.0000e-03 bohr
RMS Displacement         TolRMSD  ....  6.0000e-04 bohr
Strict Convergence                .... False

------------------------------------------------------------------------------
                        ORCA OPTIMIZATION COORDINATE SETUP
------------------------------------------------------------------------------

The optimization will be done in redundant internal coordinates (2022)
Making redundant internal coordinates   ...  (2022 redundants) done
Evaluating the initial hessian          ...  (Almloef) done
Evaluating the coordinates              ...  done
Calculating the B-matrix                .... done
Calculating the G-matrix                .... done
The number of degrees of freedom        ....  137

    -----------------------------------------------------------------
                    Redundant Internal Coordinates


    -----------------------------------------------------------------
         Definition                    Initial Value    Approx d2E/dq
    -----------------------------------------------------------------
      1. B(B   2,B   1)                  1.8569         0.150808   
      2. B(B   2,B   0)                  2.8702         0.010000   
      3. B(B   3,B   1)                  1.6746         0.294677   
      4. B(B   3,B   0)                  2.9383         0.010000   
      5. B(B   5,B   2)                  2.8425         0.010000   
      6. B(B   5,B   4)                  2.9148         0.010000   
      7. B(B   6,B   5)                  1.5579         0.452415   
      8. B(B   7,B   4)                  2.3692         0.022971   
      9. B(B   7,B   6)                  2.8457         0.010000   
     10. B(B   7,B   5)                  2.2325         0.037952   
     11. B(B   7,B   0)                  3.0332         0.010000   
     12. B(B   8,B   4)                  1.1948         1.717157   
     13. B(B   9,B   0)                  1.3639         0.922538   
     14. B(B   9,B   7)                  2.4852         0.014998   
     15. B(B  10,B   5)                  2.4258         0.018658   
     16. B(B  11,B   4)                  1.9958         0.090547   
     17. B(B  11,B   2)                  1.4027         0.799958   
     18. B(B  11,B   8)                  1.2821         1.245837   
     19. A(B   2,B   0,B   9)          120.5163         0.212188   
     20. A(B   3,B   0,B   9)          139.2352         0.205413   
     21. A(B   7,B   0,B   9)           53.8212         0.196577   
     22. A(B   3,B   0,B   7)          102.3322         0.118055   
     23. A(B   2,B   0,B   7)           67.0386         0.119746   
     24. A(B   2,B   0,B   3)           45.9550         0.122271   
     25. A(B   2,B   1,B   3)           79.7457         0.309951   
     26. A(B   0,B   2,B   1)           99.2735         0.170760   
     27. A(B   1,B   2,B   5)          129.7460         0.172665   
     28. A(B   1,B   2,B  11)          119.9307         0.365990   
     29. A(B   0,B   2,B  11)          131.3937         0.208276   
     30. A(B   0,B   2,B   5)           72.9368         0.125028   
     31. A(B   5,B   2,B  11)           98.4676         0.211056   
     32. A(B   0,B   3,B   1)          101.5274         0.178912   
     33. A(B   8,B   4,B  11)           37.8295         0.382362   
     34. A(B   7,B   4,B  11)          100.9727         0.199492   
     35. A(B   5,B   4,B   7)           48.6471         0.140459   
     36. A(B   7,B   4,B   8)          131.7464         0.304068   
     37. A(B   5,B   4,B  11)           83.7951         0.159192   
     38. A(B   5,B   4,B   8)          120.3058         0.225626   
     39. A(B   4,B   5,B  10)           90.3256         0.138093   
     40. A(B   2,B   5,B   7)           79.0168         0.150224   
     41. A(B   2,B   5,B  10)           88.1869         0.141135   
     42. A(B   2,B   5,B   6)          136.8663         0.196283   
     43. A(B   6,B   5,B   7)           95.6685         0.267164   
     44. A(B   7,B   5,B  10)          142.4955         0.175580   
     45. A(B   2,B   5,B   4)           59.5077         0.123716   
     46. A(B   4,B   5,B   7)           52.8075         0.146652   
     47. A(B   4,B   5,B   6)          145.0254         0.190024   
     48. A(B   6,B   5,B  10)          116.8774         0.240714   
     49. A(B   5,B   6,B   7)           51.3225         0.196000   
     50. A(B   6,B   7,B   9)           73.2381         0.138490   
     51. A(B   0,B   7,B   5)           78.6984         0.141248   
     52. A(B   5,B   7,B   9)           89.9625         0.171404   
     53. A(B   4,B   7,B   6)          110.1909         0.143503   
     54. A(B   4,B   7,B   5)           78.5454         0.179752   
     55. A(B   0,B   7,B   4)          111.1450         0.135636   
     56. A(B   4,B   7,B   9)          137.2056         0.162552   
     57. A(B   0,B   7,B   9)           26.2948         0.131346   
     58. A(B   5,B   7,B   6)           33.0090         0.150063   
     59. A(B   0,B   7,B   6)           76.2030         0.120379   
     60. A(B   4,B   8,B  11)          107.3132         0.620018   
     61. A(B   0,B   9,B   7)           99.8839         0.258667   
     62. A(B   4,B  11,B   8)           34.8572         0.361812   
     63. A(B   2,B  11,B   8)          147.8460         0.535708   
     64. A(B   2,B  11,B   4)          113.3239         0.335785   
     65. D(B   1,B   2,B   0,B   9)    166.4956         0.010000   
     66. D(B   1,B   2,B   0,B   7)    172.8212         0.010000   
     67. D(B   1,B   2,B   0,B   3)     35.7254         0.010000   
     68. D(B  11,B   2,B   0,B   7)    -42.3102         0.010000   
     69. D(B  11,B   2,B   1,B   3)    161.4264         0.010000   
     70. D(B   0,B   2,B   1,B   3)    -48.4501         0.010000   
     71. D(B   5,B   2,B   1,B   3)     27.0192         0.010000   
     72. D(B  11,B   2,B   0,B   9)    -48.6358         0.010000   
     73. D(B  11,B   2,B   0,B   3)   -179.4060         0.010000   
     74. D(B   1,B   3,B   0,B   9)   -128.4130         0.010000   
     75. D(B   1,B   3,B   0,B   7)    -80.6201         0.010000   
     76. D(B   0,B   3,B   1,B   2)     47.4212         0.010000   
     77. D(B   1,B   3,B   0,B   2)    -40.7058         0.010000   
     78. D(B   6,B   5,B   2,B  11)    155.1912         0.010000   
     79. D(B   6,B   5,B   2,B   1)    -63.5592         0.010000   
     80. D(B   2,B   5,B   4,B   8)    -21.1144         0.010000   
     81. D(B   7,B   5,B   4,B   8)   -120.8615         0.010000   
     82. D(B   6,B   5,B   4,B   8)   -150.5832         0.010000   
     83. D(B   6,B   5,B   4,B   7)    -29.7218         0.010000   
     84. D(B   4,B   5,B   2,B   1)    156.7728         0.010000   
     85. D(B   6,B   5,B   4,B  11)   -140.2552         0.010000   
     86. D(B   7,B   5,B   2,B   0)    -62.1834         0.010000   
     87. D(B   7,B   5,B   4,B  11)   -110.5334         0.010000   
     88. D(B   7,B   5,B   2,B  11)     68.6304         0.010000   
     89. D(B   7,B   5,B   2,B   1)   -150.1201         0.010000   
     90. D(B   6,B   5,B   2,B   0)     24.3774         0.010000   
     91. D(B   2,B   5,B   4,B  11)    -10.7864         0.010000   
     92. D(B   7,B   6,B   5,B  10)    160.7444         0.010490   
     93. D(B   7,B   6,B   5,B   4)     23.3840         0.010490   
     94. D(B   7,B   6,B   5,B   2)    -79.9745         0.010490   
     95. D(B   9,B   7,B   0,B   2)   -173.2469         0.010000   
     96. D(B   0,B   7,B   6,B   5)     90.4347         0.010000   
     97. D(B   9,B   7,B   6,B   5)    117.5408         0.010000   
     98. D(B   0,B   7,B   5,B  10)    126.8695         0.010000   
     99. D(B   0,B   7,B   5,B   4)    114.5718         0.010000   
    100. D(B   0,B   7,B   5,B   2)     54.6771         0.010000   
    101. D(B   0,B   7,B   5,B   6)    -82.0223         0.010000   
    102. D(B   9,B   7,B   5,B  10)    150.7878         0.010000   
    103. D(B   9,B   7,B   5,B   2)     78.5955         0.010000   
    104. D(B   9,B   7,B   5,B   6)    -58.1040         0.010000   
    105. D(B   5,B   7,B   4,B   8)     96.6339         0.010000   
    106. D(B   0,B   7,B   4,B   5)    -72.9766         0.010000   
    107. D(B   0,B   7,B   4,B  11)     -1.4775         0.010000   
    108. D(B   0,B   7,B   4,B   8)     23.6572         0.010000   
    109. D(B   9,B   7,B   4,B   5)    -77.3002         0.010000   
    110. D(B   9,B   7,B   5,B   4)    138.4901         0.010000   
    111. D(B   9,B   7,B   4,B  11)     -5.8011         0.010000   
    112. D(B   9,B   7,B   4,B   8)     19.3337         0.010000   
    113. D(B   6,B   7,B   0,B   2)    -93.2312         0.010000   
    114. D(B   6,B   7,B   0,B   9)     80.0157         0.010000   
    115. D(B   5,B   7,B   0,B   3)    -29.4250         0.010000   
    116. D(B   5,B   7,B   0,B   2)    -59.4842         0.010000   
    117. D(B   5,B   7,B   0,B   9)    113.7628         0.010000   
    118. D(B   4,B   7,B   6,B   5)    -17.3512         0.010000   
    119. D(B   9,B   7,B   0,B   3)   -143.1878         0.010000   
    120. D(B  11,B   8,B   4,B   5)     16.8943         0.169689   
    121. D(B  11,B   8,B   4,B   7)    -42.8347         0.169689   
    122. D(B   0,B   9,B   7,B   4)      9.1328         0.010000   
    123. D(B   0,B   9,B   7,B   6)    -92.7122         0.010000   
    124. D(B   0,B   9,B   7,B   5)    -63.8281         0.010000   
    125. D(B   7,B   9,B   0,B   3)     63.7006         0.041333   
    126. D(B   7,B   9,B   0,B   2)      7.2202         0.041333   
    127. D(B   4,B  11,B   2,B   1)   -167.7837         0.033042   
    128. D(B   2,B  11,B   8,B   4)     10.7904         0.072918   
    129. D(B   8,B  11,B   4,B   5)   -165.3821         0.010000   
    130. D(B   8,B  11,B   4,B   7)    148.8883         0.010000   
    131. D(B   2,B  11,B   4,B   5)     20.8469         0.010000   
    132. D(B   2,B  11,B   4,B   7)    -24.8827         0.010000   
    133. D(B   2,B  11,B   4,B   8)   -173.7710         0.010000   
    134. D(B   8,B  11,B   2,B   5)    -28.2089         0.033042   
    135. D(B   8,B  11,B   2,B   1)   -174.4752         0.033042   
    136. D(B   4,B  11,B   2,B   0)     53.1614         0.033042   
    137. D(B   4,B  11,B   2,B   5)    -21.5175         0.033042   
    -----------------------------------------------------------------

Number of atoms                         .... 12
Number of degrees of freedom            .... 137


         *************************************************************
         *                GEOMETRY OPTIMIZATION CYCLE   1            *
         *************************************************************
---------------------------------
CARTESIAN COORDINATES (ANGSTROEM)
---------------------------------
  B    -2.299771   -0.435106    0.951751
  B    -0.203065    2.492222    1.614088
  B     0.284645    0.812916    0.989398
  B    -1.336757    2.285295    0.399124
  B     2.020609   -1.319421    0.210143
  B    -0.049962   -0.334593   -1.589592
  B    -1.241504   -0.739622   -2.507828
  B    -0.137038   -2.154634   -0.299675
  B     2.417501   -0.634281    1.104904
  B    -2.488730   -1.616870    0.297532
  B     1.476231    1.343343   -2.449601
  B     1.557839    0.300750    1.279755

----------------------------
CARTESIAN COORDINATES (A.U.)
----------------------------
  NO LB    ZA    FRAG    MASS        X           Y           Z
   0 B   5.0000    0    10.810   -4.345938   -0.822230    1.798549
   1 B   5.0000    0    10.810   -0.383737    4.709618    3.050184
   2 B   5.0000    0    10.810    0.537900    1.536189    1.869691
   3 B   5.0000    0    10.810   -2.526105    4.318582    0.754235
   4 B   5.0000    0    10.810    3.818398   -2.493345    0.397113
   5 B   5.0000    0    10.810   -0.094414   -0.632289   -3.003893
   6 B   5.0000    0    10.810   -2.346102   -1.397684   -4.739108
   7 B   5.0000    0    10.810   -0.258963   -4.071667   -0.566303
   8 B   5.0000    0    10.810    4.568415   -1.198618    2.087966
   9 B   5.0000    0    10.810   -4.703018   -3.055441    0.562254
  10 B   5.0000    0    10.810    2.789673    2.538549   -4.629075
  11 B   5.0000    0    10.810    2.943889    0.568336    2.418386

      -----------------------------------------------------------      
     |                   =====================                   |     
     |                           x T B                           |     
     |                   =====================                   |     
     |                         S. Grimme                         |     
     |          Mulliken Center for Theoretical Chemistry        |     
     |                    University of Bonn                     |     
      -----------------------------------------------------------      

   * xtb version 6.6.1 (unknown) compiled by 'builduser@buildhost' on 2023-08-07

   xtb is free software: you can redistribute it and/or modify it under
   the terms of the GNU Lesser General Public License as published by
   the Free Software Foundation, either version 3 of the License, or
   (at your option) any later version.
   
   xtb is distributed in the hope that it will be useful,
   but WITHOUT ANY WARRANTY; without even the implied warranty of
   MERCHANTABILITY or FITNESS FOR A PARTICULAR PURPOSE.  See the
   GNU Lesser General Public License for more details.
   
   Cite this work as:
   * C. Bannwarth, E. Caldeweyher, S. Ehlert, A. Hansen, P. Pracht,
     J. Seibert, S. Spicher, S. Grimme, WIREs Comput. Mol. Sci., 2020, 11,
     e01493. DOI: 10.1002/wcms.1493
   
   for GFN2-xTB:
   * C. Bannwarth, S. Ehlert and S. Grimme., J. Chem. Theory Comput., 2019,
     15, 1652-1671. DOI: 10.1021/acs.jctc.8b01176
   for GFN1-xTB:
   * S. Grimme, C. Bannwarth, P. Shushkov, J. Chem. Theory Comput., 2017,
     13, 1989-2009. DOI: 10.1021/acs.jctc.7b00118
   for GFN0-xTB:
   * P. Pracht, E. Caldeweyher, S. Ehlert, S. Grimme, ChemRxiv, 2019, preprint.
     DOI: 10.26434/chemrxiv.8326202.v1
   for GFN-FF:
   * S. Spicher and S. Grimme, Angew. Chem. Int. Ed., 2020, 59, 15665-15673.
     DOI: 10.1002/anie.202004239
   
   for ALPB and GBSA implicit solvation:
   * S. Ehlert, M. Stahn, S. Spicher, S. Grimme, J. Chem. Theory Comput.,
     2021, 17, 4250-4261. DOI: 10.1021/acs.jctc.1c00471
   
   for DFT-D4:
   * E. Caldeweyher, C. Bannwarth and S. Grimme, J. Chem. Phys., 2017,
     147, 034112. DOI: 10.1063/1.4993215
   * E. Caldeweyher, S. Ehlert, A. Hansen, H. Neugebauer, S. Spicher,
     C. Bannwarth and S. Grimme, J. Chem. Phys., 2019, 150, 154122.
     DOI: 10.1063/1.5090222
   * E. Caldeweyher, J.-M. Mewes, S. Ehlert and S. Grimme, Phys. Chem. Chem. Phys.
     2020, 22, 8499-8512. DOI: 10.1039/D0CP00502A
   
   for sTDA-xTB:
   * S. Grimme and C. Bannwarth, J. Chem. Phys., 2016, 145, 054103.
     DOI: 10.1063/1.4959605
   
   in the mass-spec context:
   * V. Asgeirsson, C. Bauer and S. Grimme, Chem. Sci., 2017, 8, 4879.
     DOI: 10.1039/c7sc00601b
   * J. Koopman and S. Grimme, ACS Omega 2019, 4, 12, 15120-15133.
     DOI: 10.1021/acsomega.9b02011
   
   for metadynamics refer to:
   * S. Grimme, J. Chem. Theory Comput., 2019, 155, 2847-2862
     DOI: 10.1021/acs.jctc.9b00143
   
   for SPH calculations refer to:
   * S. Spicher and S. Grimme, J. Chem. Theory Comput., 2021, 17, 1701-1714
     DOI: 10.1021/acs.jctc.0c01306
   
   with help from (in alphabetical order)
   P. Atkinson, C. Bannwarth, F. Bohle, G. Brandenburg, E. Caldeweyher
   M. Checinski, S. Dohm, S. Ehlert, S. Ehrlich, I. Gerasimov, C. Hölzer
   A. Katbashev, J. Koopman, C. Lavigne, S. Lehtola, F. März, M. Müller,
   F. Musil, H. Neugebauer, J. Pisarek, C. Plett, P. Pracht, F. Pultar,
   J. Seibert, P. Shushkov, S. Spicher, M. Stahn, M. Steiner, T. Strunk,
   J. Stückrath, T. Rose, and J. Unsleber
   
 * started run on 2026/04/17 at 12:14:37.525     

           -------------------------------------------------
          |                Calculation Setup                |
           -------------------------------------------------

          program call               : /usr/bin/xtb random_d1.70_003_m3_XTB.xyz --grad -c 0 -u 2 -P 1 --namespace random_d1.70_003_m3 --input random_d1.70_003_m3_XTB.input.tmp --acc 0.200000
          calculation namespace      : random_d1.70_003_m3
          coordinate file            : random_d1.70_003_m3_XTB.xyz
          omp threads                :                     1

   ID    Z sym.   atoms
    1    5 B      1-12

molecular fragmentation (1/2 indicates fragments):
122222222122
# atoms in fragment 1/2:     2    10
 fragment masses (1/2) :       21.62      108.11
CMA distance (Bohr)    :   6.074
constraining FC (au)   :  0.0500

           -------------------------------------------------
          |                 G F N 2 - x T B                 |
           -------------------------------------------------

        Reference                      10.1021/acs.jctc.8b01176
      * Hamiltonian:
        H0-scaling (s, p, d)           1.850000    2.230000    2.230000
        zeta-weighting                 0.500000
      * Dispersion:
        s8                             2.700000
        a1                             0.520000
        a2                             5.000000
        s9                             5.000000
      * Repulsion:
        kExp                           1.500000    1.000000
        rExp                           1.000000
      * Coulomb:
        alpha                          2.000000
        third order                    shell-resolved
        anisotropic                    true
        a3                             3.000000
        a5                             4.000000
        cn-shift                       1.200000
        cn-exp                         4.000000
        max-rad                        5.000000


          ...................................................
          :                      SETUP                      :
          :.................................................:
          :  # basis functions                  48          :
          :  # atomic orbitals                  48          :
          :  # shells                           24          :
          :  # electrons                        36          :
          :  max. iterations                   250          :
          :  Hamiltonian                  GFN2-xTB          :
          :  restarted?                      false          :
          :  GBSA solvation                  false          :
          :  PC potential                    false          :
          :  electronic temp.          300.0000000     K    :
          :  accuracy                    0.2000000          :
          :  -> integral cutoff          0.3198970E+02      :
          :  -> integral neglect         0.2000000E-08      :
          :  -> SCF convergence          0.2000000E-06 Eh   :
          :  -> wf. convergence          0.2000000E-04 e    :
          :  Broyden damping             0.4000000          :
          ...................................................

 iter      E             dE          RMSdq      gap      omega  full diag
   1    -13.3758740 -0.133759E+02  0.203E+01    0.44       0.0  T
   2     -3.6998995  0.967597E+01  0.197E+01    0.34       1.0  T
   3      9.2128704  0.129128E+02  0.256E+01    0.36       1.0  T
   4     -0.7091633 -0.992203E+01  0.209E+01    0.11       1.0  T
   5     -4.7475003 -0.403834E+01  0.157E+01    0.16       1.0  T
   6     -6.4867072 -0.173921E+01  0.135E+01    0.25       1.0  T
   7     -8.1440799 -0.165737E+01  0.128E+01    0.23       1.0  T
   8    -11.1175076 -0.297343E+01  0.998E+00    0.15       1.0  T
   9    -12.7796234 -0.166212E+01  0.772E+00    0.05       1.0  T
  10    -11.6011437  0.117848E+01  0.873E+00    0.03       1.0  T
  11    -13.1887130 -0.158757E+01  0.656E+00    0.46       1.0  T
  12    -13.2873648 -0.986518E-01  0.604E+00    0.48       1.0  T
  13    -13.2875360 -0.171111E-03  0.583E+00    0.42       1.0  T
  14    -13.3045910 -0.170551E-01  0.575E+00    0.43       1.0  T
  15    -13.2682679  0.363231E-01  0.550E+00    0.42       1.0  T
  16    -13.3792896 -0.111022E+00  0.475E+00    0.43       1.0  T
  17    -13.4589949 -0.797053E-01  0.429E+00    0.39       1.0  T
  18    -13.5091174 -0.501225E-01  0.388E+00    0.35       1.0  T
  19    -13.5502827 -0.411652E-01  0.329E+00    0.32       1.0  T
  20    -13.6884269 -0.138144E+00  0.202E+00    0.23       1.0  T
  21    -13.7015890 -0.131620E-01  0.181E+00    0.20       1.0  T
  22    -13.7026382 -0.104922E-02  0.195E+00    0.15       1.0  T
  23    -13.7001248  0.251340E-02  0.154E+00    0.13       1.0  T
  24    -13.7142332 -0.141084E-01  0.656E-01    0.19       1.0  T
  25    -13.7128427  0.139050E-02  0.637E-01    0.18       1.0  T
  26    -13.7136279 -0.785145E-03  0.596E-01    0.19       1.0  T
  27    -13.7122794  0.134851E-02  0.570E-01    0.17       1.0  T
  28    -13.7142059 -0.192658E-02  0.361E-01    0.19       1.0  T
  29    -13.7126726  0.153336E-02  0.388E-01    0.18       1.0  T
  30    -13.7131084 -0.435850E-03  0.355E-01    0.19       1.0  T
  31    -13.7129286  0.179839E-03  0.349E-01    0.22       1.0  T
  32    -13.7138175 -0.888946E-03  0.293E-01    0.22       1.0  T
  33    -13.7150997 -0.128216E-02  0.144E-01    0.20       1.0  T
  34    -13.7150869  0.128311E-04  0.128E-01    0.20       1.0  T
  35    -13.7152098 -0.122896E-03  0.102E-01    0.20       1.0  T
  36    -13.7153267 -0.116980E-03  0.755E-02    0.21       1.0  T
  37    -13.7153430 -0.163054E-04  0.690E-02    0.21       1.0  T
  38    -13.7154155 -0.724429E-04  0.307E-02    0.22       1.0  T
  39    -13.7154145  0.994605E-06  0.295E-02    0.22       1.0  T
  40    -13.7154318 -0.173145E-04  0.916E-03    0.22       3.2  T
  41    -13.7154325 -0.701201E-06  0.708E-03    0.21       4.1  T
  42    -13.7154333 -0.763334E-06  0.393E-03    0.21       7.3  T
  43    -13.7154335 -0.226371E-06  0.249E-03    0.21      11.6  T
  44    -13.7154336 -0.632034E-07  0.103E-03    0.21      28.0  T
  45    -13.7154336 -0.509758E-08  0.674E-04    0.21      42.8  T
  46    -13.7154336 -0.626033E-08  0.299E-04    0.21      96.6  T
  47    -13.7154336 -0.130819E-08  0.215E-04    0.21     134.4  T
  48    -13.7154336 -0.558460E-09  0.794E-05    0.21     363.5  T
  49    -13.7154336 -0.581810E-10  0.502E-05    0.21     575.3  T

   *** convergence criteria satisfied after 49 iterations ***

         #    Occupation            Energy/Eh            Energy/eV
      -------------------------------------------------------------
         1        2.0000           -0.4127139             -11.2305
       ...           ...                  ...                  ...
        13        2.0000           -0.2728479              -7.4246
        14        2.0000           -0.2683276              -7.3016
        15        2.0000           -0.2631141              -7.1597
        16        1.9920           -0.2566534              -6.9839
        17        1.8602           -0.2537946              -6.9061
        18        1.1477           -0.2504029              -6.8138
        19        0.9844           -0.2399117              -6.5283 (HOMO)
        20        0.0156           -0.2320416              -6.3142 (LUMO)
        21        0.0000           -0.2234747              -6.0811
        22        0.0000           -0.2212514              -6.0206
        23                         -0.2188195              -5.9544
        24                         -0.2164091              -5.8888
       ...                                ...                  ...
        48                          3.9638768             107.8626
      -------------------------------------------------------------
                  HL-Gap            0.0078701 Eh            0.2142 eV
             Fermi-level           -0.2440224 Eh           -6.6402 eV

 transition dipole moment (au) for excitation:          18          19
     X       Y       Z   
   0.3831   0.2425  -1.0568  total (au/Debye):    1.150   2.923
 dE (eV)             :    0.285
 oscillator strength :  0.13081E-01

 SCC (total)                   0 d,  0 h,  0 min,  0.107 sec
 SCC setup                      ...        0 min,  0.000 sec (  0.133%)
 Dispersion                     ...        0 min,  0.000 sec (  0.091%)
 classical contributions        ...        0 min,  0.000 sec (  0.032%)
 integral evaluation            ...        0 min,  0.003 sec (  3.090%)
 iterations                     ...        0 min,  0.094 sec ( 88.298%)
 molecular gradient             ...        0 min,  0.005 sec (  4.704%)
 printout                       ...        0 min,  0.004 sec (  3.629%)

         :::::::::::::::::::::::::::::::::::::::::::::::::::::
         ::                     SUMMARY                     ::
         :::::::::::::::::::::::::::::::::::::::::::::::::::::
         :: total energy             -13.231777664785 Eh    ::
         :: gradient norm              1.013251144220 Eh/a0 ::
         :: HOMO-LUMO gap              0.214155988151 eV    ::
         ::.................................................::
         :: SCC energy               -13.715433572915 Eh    ::
         :: -> isotropic ES            0.076527402782 Eh    ::
         :: -> anisotropic ES          0.001320457300 Eh    ::
         :: -> anisotropic XC         -0.038667905879 Eh    ::
         :: -> dispersion             -0.021837095553 Eh    ::
         :: repulsion energy           0.483503170780 Eh    ::
         :: add. restraining           0.000000000000 Eh    ::
         :: total charge               0.000000000001 e     ::
         :::::::::::::::::::::::::::::::::::::::::::::::::::::


Property printout bound to 'properties.out'

           -------------------------------------------------
          | TOTAL ENERGY              -13.231777664785 Eh   |
          | GRADIENT NORM               1.013251144220 Eh/α |
          | HOMO-LUMO GAP               0.214155988151 eV   |
           -------------------------------------------------

------------------------------------------------------------------------
 * finished run on 2026/04/17 at 12:14:37.644     
------------------------------------------------------------------------
 total:
 * wall-time:     0 d,  0 h,  0 min,  0.119 sec
 *  cpu-time:     0 d,  0 h,  0 min,  0.078 sec
 * ratio c/w:     0.655 speedup
 SCF:
 * wall-time:     0 d,  0 h,  0 min,  0.107 sec
 *  cpu-time:     0 d,  0 h,  0 min,  0.066 sec
 * ratio c/w:     0.615 speedup


-------------------------   --------------------
FINAL SINGLE POINT ENERGY       -13.231777664790
-------------------------   --------------------


-------------
DIPOLE MOMENT
-------------
                                X             Y             Z
Total Dipole Moment    :     -1.03200      -0.60600      -0.05400
                        -----------------------------------------
Magnitude (a.u.)       :      1.19799
Magnitude (Debye)      :      3.04504


------------------
CARTESIAN GRADIENT
------------------

   1   B   :   -0.026516439   -0.089368909   -0.031351494
   2   B   :    0.062267727    0.061074847    0.096588288
   3   B   :    0.143470160   -0.126297593   -0.000008010
   4   B   :   -0.078992687    0.019834869   -0.083855847
   5   B   :    0.260851383    0.396088936    0.480411886
   6   B   :    0.020557404    0.008532978    0.043260168
   7   B   :   -0.052906138   -0.013852176   -0.052553591
   8   B   :   -0.003858100   -0.068039753    0.011270504
   9   B   :   -0.460543089   -0.115089462   -0.427024638
  10   B   :   -0.034873444    0.080592517    0.049511894
  11   B   :    0.035374099    0.040570674   -0.022484069
  12   B   :    0.135169125   -0.194046927   -0.063765090

Difference to translation invariance:
           :    0.0000000000   -0.0000000000   -0.0000000000

Difference to rotation invariance:
           :   -0.0000000095   -0.0000000180    0.0000000012

Norm of the Cartesian gradient     ...    1.0132511442
RMS gradient                       ...    0.1688751907
MAX gradient                       ...    0.4804118855
------------------------------------------------------------------------------
                         ORCA GEOMETRY RELAXATION STEP
------------------------------------------------------------------------------

Reading the OPT-File                    .... done
Getting information on internals        .... done
Copying old internal coords+grads       .... done
Making the new internal coordinates     .... (2022 redundants) done
Validating the new internal coordinates .... (2022 redundants) done
Calculating the B-matrix                .... done
Calculating the G,G- and P matrices     .... done
Transforming gradient to internals      .... done
Projecting the internal gradient        .... done
Number of atoms                         ....  12
Number of internal coordinates          .... 137
Current Energy                          ....   -13.231777665 Eh
Current gradient norm                   ....     1.013251144 Eh/bohr
Maximum allowed component of the step   ....  0.300
Current trust radius                    ....  0.300
Evaluating the initial hessian          ....  (Almloef) done
Projecting the Hessian                  .... done
Forming the augmented Hessian           .... done
Diagonalizing the augmented Hessian     .... done
Last element of RFO vector              ....  0.862470442
Lowest eigenvalues of augmented Hessian:
 -0.318208703  0.015603914  0.017929285  0.018569976  0.019825310
Length of the computed step             ....  0.586811339
Warning: the length of the step is outside the trust region - taking restricted step instead
The input lambda is                     ....     0.013610
   iter:   5  x=    0.004676  g=24325.618594 f(x)=    92.763800
   iter:  10  x=   -0.103126  g=   41.011228 f(x)=     1.979424
   iter:  15  x=   -1.095905  g=    0.145426 f(x)=     0.026277
   iter:  20  x=   -1.137571  g=    0.095888 f(x)=     0.000000
The output lambda is                    ....    -1.137571 (20 iterations)
The final length of the internal step   ....  0.300000000
Converting the step to Cartesian space:
 Initial RMS(Int)=    0.0256307297
Transforming coordinates:
 Iter   0:  RMS(Cart)=    0.0358327569 RMS(Int)=    0.0255669727
done
Storing new coordinates                 .... done

                                .--------------------.
          ----------------------|Geometry convergence|-------------------------
          Item                value                   Tolerance       Converged
          ---------------------------------------------------------------------
          RMS gradient        0.0524163628            0.0000300000      NO
          MAX gradient        0.4283951089            0.0001000000      NO
          RMS step            0.0256307297            0.0006000000      NO
          MAX step            0.1776402919            0.0010000000      NO
          -------------------------------------------------------------------------
          ........................................................
          Max(Bonds)      0.0940      Max(Angles)    3.94
          Max(Dihed)        1.02      Max(Improp)    0.00
          ---------------------------------------------------------------------

The optimization has not yet converged - more geometry cycles are needed


    ---------------------------------------------------------------------------
                         Redundant Internal Coordinates
                            (Angstroem and degrees)

        Definition                    Value    dE/dq     Step     New-Value
    ----------------------------------------------------------------------------
     1. B(B   2,B   1)                1.8569  0.063589 -0.0253    1.8317   
     2. B(B   2,B   0)                2.8702  0.037558 -0.0147    2.8555   
     3. B(B   3,B   1)                1.6746  0.103490 -0.0389    1.6357   
     4. B(B   3,B   0)                2.9383  0.022941 -0.0110    2.9272   
     5. B(B   5,B   2)                2.8425 -0.029943  0.0086    2.8511   
     6. B(B   5,B   4)                2.9148 -0.018480  0.0036    2.9185   
     7. B(B   6,B   5)                1.5579  0.042518 -0.0169    1.5410   
     8. B(B   7,B   4)                2.3692  0.044009 -0.0190    2.3501   
     9. B(B   7,B   6)                2.8457  0.047020 -0.0167    2.8290   
    10. B(B   7,B   5)                2.2325  0.014195 -0.0068    2.2257   
    11. B(B   7,B   0)                3.0332 -0.007938 -0.0003    3.0329   
    12. B(B   8,B   4)                1.1948 -0.428395  0.0940    1.2888   
    13. B(B   9,B   0)                1.3639 -0.059122  0.0173    1.3812   
    14. B(B   9,B   7)                2.4852  0.039034 -0.0162    2.4690   
    15. B(B  10,B   5)                2.4258  0.058290 -0.0267    2.3991   
    16. B(B  11,B   4)                1.9958 -0.230087  0.0640    2.0598   
    17. B(B  11,B   2)                1.4027 -0.097416  0.0290    1.4317   
    18. B(B  11,B   8)                1.2821 -0.150377  0.0488    1.3310   
    19. A(B   2,B   0,B   9)          120.52 -0.004941    0.09    120.61   
    20. A(B   3,B   0,B   9)          139.24  0.004931   -0.24    139.00   
    21. A(B   7,B   0,B   9)           53.82  0.014179   -0.55     53.27   
    22. A(B   3,B   0,B   7)          102.33  0.001627   -0.15    102.19   
    23. A(B   2,B   0,B   7)           67.04 -0.019370    0.66     67.70   
    24. A(B   2,B   0,B   3)           45.95  0.019064   -0.79     45.17   
    25. A(B   2,B   1,B   3)           79.75  0.005685   -0.27     79.48   
    26. A(B   0,B   2,B   1)           99.27 -0.010400    0.38     99.66   
    27. A(B   1,B   2,B   5)          129.75  0.001544    0.01    129.76   
    28. A(B   1,B   2,B  11)          119.93  0.003745    0.08    120.01   
    29. A(B   0,B   2,B  11)          131.39  0.008833   -0.49    130.90   
    30. A(B   0,B   2,B   5)           72.94  0.006153   -0.22     72.72   
    31. A(B   5,B   2,B  11)           98.47 -0.006724    0.01     98.48   
    32. A(B   0,B   3,B   1)          101.53 -0.016026    0.64    102.17   
    33. A(B   8,B   4,B  11)           37.83 -0.041317    1.22     39.05   
    34. A(B   7,B   4,B  11)          100.97  0.009188   -0.28    100.70   
    35. A(B   5,B   4,B   7)           48.65  0.003789   -0.13     48.52   
    36. A(B   7,B   4,B   8)          131.75 -0.027187    0.78    132.53   
    37. A(B   5,B   4,B  11)           83.80  0.010775   -0.37     83.42   
    38. A(B   5,B   4,B   8)          120.31 -0.027599    0.78    121.08   
    39. A(B   4,B   5,B  10)           90.33 -0.005841    0.21     90.54   
    40. A(B   2,B   5,B   7)           79.02 -0.016723    0.53     79.55   
    41. A(B   2,B   5,B  10)           88.19  0.008060   -0.28     87.90   
    42. A(B   2,B   5,B   6)          136.87  0.023240   -0.74    136.13   
    43. A(B   6,B   5,B   7)           95.67  0.003718   -0.02     95.65   
    44. A(B   7,B   5,B  10)          142.50  0.004554   -0.23    142.26   
    45. A(B   2,B   5,B   4)           59.51 -0.040942    1.33     60.84   
    46. A(B   4,B   5,B   7)           52.81  0.012915   -0.53     52.28   
    47. A(B   4,B   5,B   6)          145.03  0.019564   -0.63    144.39   
    48. A(B   6,B   5,B  10)          116.88 -0.011111    0.34    117.22   
    49. A(B   5,B   6,B   7)           51.32 -0.007181    0.21     51.53   
    50. A(B   6,B   7,B   9)           73.24  0.009860   -0.33     72.91   
    51. A(B   0,B   7,B   5)           78.70  0.008337   -0.26     78.43   
    52. A(B   5,B   7,B   9)           89.96  0.002493   -0.12     89.84   
    53. A(B   4,B   7,B   6)          110.19 -0.011138    0.41    110.60   
    54. A(B   4,B   7,B   5)           78.55 -0.016704    0.65     79.20   
    55. A(B   0,B   7,B   4)          111.14 -0.023733    0.77    111.91   
    56. A(B   4,B   7,B   9)          137.21 -0.033254    1.09    138.29   
    57. A(B   0,B   7,B   9)           26.29 -0.010317    0.34     26.64   
    58. A(B   5,B   7,B   6)           33.01  0.003462   -0.18     32.83   
    59. A(B   0,B   7,B   6)           76.20  0.012479   -0.38     75.82   
    60. A(B   4,B   8,B  11)          107.31  0.167301   -3.94    103.38   
    61. A(B   0,B   9,B   7)           99.88 -0.003861    0.21    100.09   
    62. A(B   4,B  11,B   8)           34.86 -0.125984    2.72     37.57   
    63. A(B   2,B  11,B   8)          147.85 -0.088370    1.73    149.58   
    64. A(B   2,B  11,B   4)          113.32  0.037092   -0.97    112.35   
    65. D(B   1,B   2,B   0,B   9)    166.50  0.016143   -0.56    165.93   
    66. D(B   1,B   2,B   0,B   7)    172.82  0.014713   -0.45    172.37   
    67. D(B   1,B   2,B   0,B   3)     35.73  0.006540   -0.20     35.52   
    68. D(B  11,B   2,B   0,B   7)    -42.31  0.017559   -0.36    -42.67   
    69. D(B  11,B   2,B   1,B   3)    161.43 -0.003223    0.07    161.50   
    70. D(B   0,B   2,B   1,B   3)    -48.45  0.002334   -0.13    -48.58   
    71. D(B   5,B   2,B   1,B   3)     27.02  0.001775   -0.10     26.92   
    72. D(B  11,B   2,B   0,B   9)    -48.64  0.018988   -0.48    -49.11   
    73. D(B  11,B   2,B   0,B   3)   -179.41  0.009386   -0.12   -179.52   
    74. D(B   1,B   3,B   0,B   9)   -128.41 -0.002717    0.25   -128.17   
    75. D(B   1,B   3,B   0,B   7)    -80.62  0.019998   -0.71    -81.33   
    76. D(B   0,B   3,B   1,B   2)     47.42 -0.000921    0.12     47.54   
    77. D(B   1,B   3,B   0,B   2)    -40.71  0.006074   -0.29    -40.99   
    78. D(B   6,B   5,B   2,B  11)    155.19 -0.010294    0.30    155.49   
    79. D(B   6,B   5,B   2,B   1)    -63.56 -0.011689    0.47    -63.09   
    80. D(B   2,B   5,B   4,B   8)    -21.11  0.019214   -0.51    -21.63   
    81. D(B   7,B   5,B   4,B   8)   -120.86  0.017216   -0.50   -121.37   
    82. D(B   6,B   5,B   4,B   8)   -150.58  0.025401   -0.75   -151.33   
    83. D(B   6,B   5,B   4,B   7)    -29.72  0.008185   -0.24    -29.96   
    84. D(B   4,B   5,B   2,B   1)    156.77 -0.010048    0.41    157.18   
    85. D(B   6,B   5,B   4,B  11)   -140.26  0.007533   -0.28   -140.53   
    86. D(B   7,B   5,B   2,B   0)    -62.18 -0.002431    0.07    -62.11   
    87. D(B   7,B   5,B   4,B  11)   -110.53 -0.000652   -0.04   -110.57   
    88. D(B   7,B   5,B   2,B  11)     68.63  0.008270   -0.43     68.20   
    89. D(B   7,B   5,B   2,B   1)   -150.12  0.006875   -0.26   -150.38   
    90. D(B   6,B   5,B   2,B   0)     24.38 -0.020995    0.80     25.18   
    91. D(B   2,B   5,B   4,B  11)    -10.79  0.001346   -0.04    -10.83   
    92. D(B   7,B   6,B   5,B  10)    160.74 -0.003222    0.07    160.81   
    93. D(B   7,B   6,B   5,B   4)     23.38 -0.001802    0.01     23.39   
    94. D(B   7,B   6,B   5,B   2)    -79.97  0.022582   -0.82    -80.79   
    95. D(B   9,B   7,B   0,B   2)   -173.25 -0.002410    0.16   -173.08   
    96. D(B   0,B   7,B   6,B   5)     90.43 -0.004670    0.15     90.58   
    97. D(B   9,B   7,B   6,B   5)    117.54 -0.017231    0.56    118.10   
    98. D(B   0,B   7,B   5,B  10)    126.87  0.001242   -0.07    126.80   
    99. D(B   0,B   7,B   5,B   4)    114.57 -0.022726    0.70    115.27   
   100. D(B   0,B   7,B   5,B   2)     54.68  0.013850   -0.48     54.20   
   101. D(B   0,B   7,B   5,B   6)    -82.02 -0.010230    0.30    -81.72   
   102. D(B   9,B   7,B   5,B  10)    150.79 -0.007736    0.25    151.04   
   103. D(B   9,B   7,B   5,B   2)     78.60  0.004872   -0.15     78.44   
   104. D(B   9,B   7,B   5,B   6)    -58.10 -0.019208    0.63    -57.48   
   105. D(B   5,B   7,B   4,B   8)     96.63 -0.018547    0.49     97.12   
   106. D(B   0,B   7,B   4,B   5)    -72.98 -0.009401    0.25    -72.73   
   107. D(B   0,B   7,B   4,B  11)     -1.48 -0.001306   -0.08     -1.55   
   108. D(B   0,B   7,B   4,B   8)     23.66 -0.027947    0.74     24.39   
   109. D(B   9,B   7,B   4,B   5)    -77.30  0.000417   -0.07    -77.37   
   110. D(B   9,B   7,B   5,B   4)    138.49 -0.031704    1.02    139.51   
   111. D(B   9,B   7,B   4,B  11)     -5.80  0.008512   -0.40     -6.20   
   112. D(B   9,B   7,B   4,B   8)     19.33 -0.018129    0.42     19.75   
   113. D(B   6,B   7,B   0,B   2)    -93.23 -0.006334    0.24    -93.00   
   114. D(B   6,B   7,B   0,B   9)     80.02 -0.003924    0.07     80.09   
   115. D(B   5,B   7,B   0,B   3)    -29.42  0.001925   -0.22    -29.65   
   116. D(B   5,B   7,B   0,B   2)    -59.48 -0.003862    0.08    -59.40   
   117. D(B   5,B   7,B   0,B   9)    113.76 -0.001452   -0.08    113.68   
   118. D(B   4,B   7,B   6,B   5)    -17.35  0.015440   -0.50    -17.85   
   119. D(B   9,B   7,B   0,B   3)   -143.19  0.003377   -0.14   -143.33   
   120. D(B  11,B   8,B   4,B   5)     16.89 -0.013263    0.29     17.18   
   121. D(B  11,B   8,B   4,B   7)    -42.83  0.004966   -0.20    -43.03   
   122. D(B   0,B   9,B   7,B   4)      9.13 -0.016044    0.52      9.65   
   123. D(B   0,B   9,B   7,B   6)    -92.71 -0.012585    0.35    -92.36   
   124. D(B   0,B   9,B   7,B   5)    -63.83 -0.004688    0.03    -63.79   
   125. D(B   7,B   9,B   0,B   3)     63.70  0.019985   -0.88     62.82   
   126. D(B   7,B   9,B   0,B   2)      7.22 -0.003987    0.22      7.44   
   127. D(B   4,B  11,B   2,B   1)   -167.78 -0.005505    0.10   -167.69   
   128. D(B   2,B  11,B   8,B   4)     10.79 -0.006131    0.09     10.88   
   129. D(B   8,B  11,B   4,B   5)   -165.38 -0.007487    0.14   -165.24   
   130. D(B   8,B  11,B   4,B   7)    148.89 -0.012485    0.33    149.21   
   131. D(B   2,B  11,B   4,B   5)     20.85  0.006091   -0.16     20.69   
   132. D(B   2,B  11,B   4,B   7)    -24.88  0.001093    0.03    -24.86   
   133. D(B   2,B  11,B   4,B   8)   -173.77  0.013578   -0.30   -174.07   
   134. D(B   8,B  11,B   2,B   5)    -28.21  0.015871   -0.24    -28.45   
   135. D(B   8,B  11,B   2,B   1)   -174.48  0.017614   -0.36   -174.84   
   136. D(B   4,B  11,B   2,B   0)     53.16 -0.005670   -0.02     53.14   
   137. D(B   4,B  11,B   2,B   5)    -21.52 -0.007248    0.22    -21.30   
    ----------------------------------------------------------------------------

Geometry step timings:
Preparation and reading OPT file:      0.000 s ( 0.757 %)
Internal coordinates            :      0.000 s ( 0.787 %)
B/P matrices and projection     :      0.001 s (20.350 %)
Hessian update/contruction      :      0.001 s (15.274 %)
Making the step                 :      0.003 s (42.081 %)
Converting the step to Cartesian:      0.000 s ( 2.197 %)
Storing new data                :      0.000 s ( 1.158 %)
Checking convergence            :      0.000 s ( 0.772 %)
Final printing                  :      0.001 s (16.625 %)
Total time                      :      0.007 s

Time for energy+gradient        :      0.131 s
Time for complete geometry iter :      0.139 s

         *************************************************************
         *                GEOMETRY OPTIMIZATION CYCLE   2            *
         *************************************************************
---------------------------------
CARTESIAN COORDINATES (ANGSTROEM)
---------------------------------
  B    -2.296498   -0.427154    0.945591
  B    -0.222524    2.495691    1.593162
  B     0.263893    0.836601    0.988414
  B    -1.321082    2.278474    0.400827
  B     2.015247   -1.357564    0.182788
  B    -0.061354   -0.331057   -1.592056
  B    -1.248761   -0.725864   -2.491334
  B    -0.140983   -2.150415   -0.312428
  B     2.479263   -0.640034    1.148785
  B    -2.479303   -1.623184    0.279317
  B     1.450127    1.329425   -2.436956
  B     1.561975    0.315081    1.293891

----------------------------
CARTESIAN COORDINATES (A.U.)
----------------------------
  NO LB    ZA    FRAG    MASS        X           Y           Z
   0 B   5.0000    0    10.810   -4.339753   -0.807205    1.786908
   1 B   5.0000    0    10.810   -0.420509    4.716173    3.010640
   2 B   5.0000    0    10.810    0.498686    1.580947    1.867832
   3 B   5.0000    0    10.810   -2.496483    4.305692    0.757453
   4 B   5.0000    0    10.810    3.808265   -2.565425    0.345419
   5 B   5.0000    0    10.810   -0.115942   -0.625608   -3.008550
   6 B   5.0000    0    10.810   -2.359817   -1.371684   -4.707938
   7 B   5.0000    0    10.810   -0.266420   -4.063695   -0.590404
   8 B   5.0000    0    10.810    4.685129   -1.209488    2.170889
   9 B   5.0000    0    10.810   -4.685203   -3.067373    0.527832
  10 B   5.0000    0    10.810    2.740342    2.512248   -4.605180
  11 B   5.0000    0    10.810    2.951706    0.595417    2.445099

      -----------------------------------------------------------      
     |                   =====================                   |     
     |                           x T B                           |     
     |                   =====================                   |     
     |                         S. Grimme                         |     
     |          Mulliken Center for Theoretical Chemistry        |     
     |                    University of Bonn                     |     
      -----------------------------------------------------------      

   * xtb version 6.6.1 (unknown) compiled by 'builduser@buildhost' on 2023-08-07

   xtb is free software: you can redistribute it and/or modify it under
   the terms of the GNU Lesser General Public License as published by
   the Free Software Foundation, either version 3 of the License, or
   (at your option) any later version.
   
   xtb is distributed in the hope that it will be useful,
   but WITHOUT ANY WARRANTY; without even the implied warranty of
   MERCHANTABILITY or FITNESS FOR A PARTICULAR PURPOSE.  See the
   GNU Lesser General Public License for more details.
   
   Cite this work as:
   * C. Bannwarth, E. Caldeweyher, S. Ehlert, A. Hansen, P. Pracht,
     J. Seibert, S. Spicher, S. Grimme, WIREs Comput. Mol. Sci., 2020, 11,
     e01493. DOI: 10.1002/wcms.1493
   
   for GFN2-xTB:
   * C. Bannwarth, S. Ehlert and S. Grimme., J. Chem. Theory Comput., 2019,
     15, 1652-1671. DOI: 10.1021/acs.jctc.8b01176
   for GFN1-xTB:
   * S. Grimme, C. Bannwarth, P. Shushkov, J. Chem. Theory Comput., 2017,
     13, 1989-2009. DOI: 10.1021/acs.jctc.7b00118
   for GFN0-xTB:
   * P. Pracht, E. Caldeweyher, S. Ehlert, S. Grimme, ChemRxiv, 2019, preprint.
     DOI: 10.26434/chemrxiv.8326202.v1
   for GFN-FF:
   * S. Spicher and S. Grimme, Angew. Chem. Int. Ed., 2020, 59, 15665-15673.
     DOI: 10.1002/anie.202004239
   
   for ALPB and GBSA implicit solvation:
   * S. Ehlert, M. Stahn, S. Spicher, S. Grimme, J. Chem. Theory Comput.,
     2021, 17, 4250-4261. DOI: 10.1021/acs.jctc.1c00471
   
   for DFT-D4:
   * E. Caldeweyher, C. Bannwarth and S. Grimme, J. Chem. Phys., 2017,
     147, 034112. DOI: 10.1063/1.4993215
   * E. Caldeweyher, S. Ehlert, A. Hansen, H. Neugebauer, S. Spicher,
     C. Bannwarth and S. Grimme, J. Chem. Phys., 2019, 150, 154122.
     DOI: 10.1063/1.5090222
   * E. Caldeweyher, J.-M. Mewes, S. Ehlert and S. Grimme, Phys. Chem. Chem. Phys.
     2020, 22, 8499-8512. DOI: 10.1039/D0CP00502A
   
   for sTDA-xTB:
   * S. Grimme and C. Bannwarth, J. Chem. Phys., 2016, 145, 054103.
     DOI: 10.1063/1.4959605
   
   in the mass-spec context:
   * V. Asgeirsson, C. Bauer and S. Grimme, Chem. Sci., 2017, 8, 4879.
     DOI: 10.1039/c7sc00601b
   * J. Koopman and S. Grimme, ACS Omega 2019, 4, 12, 15120-15133.
     DOI: 10.1021/acsomega.9b02011
   
   for metadynamics refer to:
   * S. Grimme, J. Chem. Theory Comput., 2019, 155, 2847-2862
     DOI: 10.1021/acs.jctc.9b00143
   
   for SPH calculations refer to:
   * S. Spicher and S. Grimme, J. Chem. Theory Comput., 2021, 17, 1701-1714
     DOI: 10.1021/acs.jctc.0c01306
   
   with help from (in alphabetical order)
   P. Atkinson, C. Bannwarth, F. Bohle, G. Brandenburg, E. Caldeweyher
   M. Checinski, S. Dohm, S. Ehlert, S. Ehrlich, I. Gerasimov, C. Hölzer
   A. Katbashev, J. Koopman, C. Lavigne, S. Lehtola, F. März, M. Müller,
   F. Musil, H. Neugebauer, J. Pisarek, C. Plett, P. Pracht, F. Pultar,
   J. Seibert, P. Shushkov, S. Spicher, M. Stahn, M. Steiner, T. Strunk,
   J. Stückrath, T. Rose, and J. Unsleber
   
 * started run on 2026/04/17 at 12:14:37.667     

           -------------------------------------------------
          |                Calculation Setup                |
           -------------------------------------------------

          program call               : /usr/bin/xtb random_d1.70_003_m3_XTB.xyz --grad -c 0 -u 2 -P 1 --namespace random_d1.70_003_m3 --input random_d1.70_003_m3_XTB.input.tmp --acc 0.200000
          calculation namespace      : random_d1.70_003_m3
          coordinate file            : random_d1.70_003_m3_XTB.xyz
          omp threads                :                     1

   ID    Z sym.   atoms
    1    5 B      1-12

molecular fragmentation (1/2 indicates fragments):
122222222122
# atoms in fragment 1/2:     2    10
 fragment masses (1/2) :       21.62      108.11
CMA distance (Bohr)    :   6.054
constraining FC (au)   :  0.0500

           -------------------------------------------------
          |                 G F N 2 - x T B                 |
           -------------------------------------------------

        Reference                      10.1021/acs.jctc.8b01176
      * Hamiltonian:
        H0-scaling (s, p, d)           1.850000    2.230000    2.230000
        zeta-weighting                 0.500000
      * Dispersion:
        s8                             2.700000
        a1                             0.520000
        a2                             5.000000
        s9                             5.000000
      * Repulsion:
        kExp                           1.500000    1.000000
        rExp                           1.000000
      * Coulomb:
        alpha                          2.000000
        third order                    shell-resolved
        anisotropic                    true
        a3                             3.000000
        a5                             4.000000
        cn-shift                       1.200000
        cn-exp                         4.000000
        max-rad                        5.000000

q/qsh data taken from xtbrestart
CAMM data taken from xtbrestart

          ...................................................
          :                      SETUP                      :
          :.................................................:
          :  # basis functions                  48          :
          :  # atomic orbitals                  48          :
          :  # shells                           24          :
          :  # electrons                        36          :
          :  max. iterations                   250          :
          :  Hamiltonian                  GFN2-xTB          :
          :  restarted?                       true          :
          :  GBSA solvation                  false          :
          :  PC potential                    false          :
          :  electronic temp.          300.0000000     K    :
          :  accuracy                    0.2000000          :
          :  -> integral cutoff          0.3198970E+02      :
          :  -> integral neglect         0.2000000E-08      :
          :  -> SCF convergence          0.2000000E-06 Eh   :
          :  -> wf. convergence          0.2000000E-04 e    :
          :  Broyden damping             0.4000000          :
          ...................................................

 iter      E             dE          RMSdq      gap      omega  full diag
   1    -13.7004780 -0.137005E+02  0.910E-01    0.23       0.0  T
   2    -13.5498458  0.150632E+00  0.221E+00    0.50       1.0  T
   3    -13.4809191  0.689267E-01  0.278E+00    0.11       1.0  T
   4    -13.6644065 -0.183487E+00  0.128E+00    0.23       1.0  T
   5    -13.6333070  0.310995E-01  0.161E+00    0.24       1.0  T
   6    -13.6732302 -0.399232E-01  0.107E+00    0.29       1.0  T
   7    -13.6887460 -0.155157E-01  0.733E-01    0.29       1.0  T
   8    -13.6997501 -0.110041E-01  0.453E-01    0.28       1.0  T
   9    -13.7012605 -0.151048E-02  0.364E-01    0.28       1.0  T
  10    -13.7012587  0.184706E-05  0.352E-01    0.29       1.0  T
  11    -13.7020833 -0.824614E-03  0.316E-01    0.28       1.0  T
  12    -13.7024718 -0.388517E-03  0.261E-01    0.26       1.0  T
  13    -13.7034985 -0.102671E-02  0.172E-01    0.27       1.0  T
  14    -13.7035880 -0.894769E-04  0.151E-01    0.27       1.0  T
  15    -13.7036301 -0.420953E-04  0.135E-01    0.27       1.0  T
  16    -13.7036384 -0.829816E-05  0.132E-01    0.27       1.0  T
  17    -13.7037066 -0.682137E-04  0.801E-02    0.27       1.0  T
  18    -13.7037243 -0.177240E-04  0.572E-02    0.27       1.0  T
  19    -13.7037288 -0.443901E-05  0.545E-02    0.27       1.0  T
  20    -13.7037319 -0.310489E-05  0.517E-02    0.27       1.0  T
  21    -13.7037656 -0.337142E-04  0.174E-02    0.27       1.7  T
  22    -13.7037666 -0.965920E-06  0.149E-02    0.27       1.9  T
  23    -13.7037689 -0.237322E-05  0.582E-03    0.27       5.0  T
  24    -13.7037693 -0.336904E-06  0.268E-03    0.27      10.8  T
  25    -13.7037694 -0.817075E-07  0.356E-04    0.27      81.1  T
  26    -13.7037694  0.576332E-09  0.337E-04    0.27      85.8  T
  27    -13.7037694 -0.167685E-08  0.113E-04    0.27     256.3  T
  28    -13.7037694 -0.404903E-10  0.671E-05    0.27     430.4  T

   *** convergence criteria satisfied after 28 iterations ***

         #    Occupation            Energy/Eh            Energy/eV
      -------------------------------------------------------------
         1        2.0000           -0.4104765             -11.1696
       ...           ...                  ...                  ...
        13        2.0000           -0.2725134              -7.4155
        14        2.0000           -0.2687237              -7.3123
        15        2.0000           -0.2619421              -7.1278
        16        1.9961           -0.2566661              -6.9842
        17        1.8217           -0.2528508              -6.8804
        18        1.1822           -0.2499725              -6.8021
        19        0.9942           -0.2398092              -6.5255 (HOMO)
        20        0.0058           -0.2300502              -6.2600 (LUMO)
        21        0.0000           -0.2218109              -6.0358
        22                         -0.2195879              -5.9753
        23                         -0.2169686              -5.9040
        24                         -0.2153508              -5.8600
       ...                                ...                  ...
        48                          2.6956040              73.3511
      -------------------------------------------------------------
                  HL-Gap            0.0097589 Eh            0.2656 eV
             Fermi-level           -0.2431644 Eh           -6.6168 eV

 transition dipole moment (au) for excitation:          18          19
     X       Y       Z   
  -0.5099  -0.2329   1.0965  total (au/Debye):    1.231   3.130
 dE (eV)             :    0.277
 oscillator strength :  0.14531E-01

 SCC (total)                   0 d,  0 h,  0 min,  0.046 sec
 SCC setup                      ...        0 min,  0.000 sec (  0.346%)
 Dispersion                     ...        0 min,  0.000 sec (  0.219%)
 classical contributions        ...        0 min,  0.000 sec (  0.064%)
 integral evaluation            ...        0 min,  0.002 sec (  4.849%)
 iterations                     ...        0 min,  0.033 sec ( 71.382%)
 molecular gradient             ...        0 min,  0.006 sec ( 13.523%)
 printout                       ...        0 min,  0.004 sec (  9.565%)

         :::::::::::::::::::::::::::::::::::::::::::::::::::::
         ::                     SUMMARY                     ::
         :::::::::::::::::::::::::::::::::::::::::::::::::::::
         :: total energy             -13.370435767065 Eh    ::
         :: gradient norm              0.561957911148 Eh/a0 ::
         :: HOMO-LUMO gap              0.265554305523 eV    ::
         ::.................................................::
         :: SCC energy               -13.703769356119 Eh    ::
         :: -> isotropic ES            0.077956175163 Eh    ::
         :: -> anisotropic ES          0.001634445744 Eh    ::
         :: -> anisotropic XC         -0.040038663777 Eh    ::
         :: -> dispersion             -0.022031044180 Eh    ::
         :: repulsion energy           0.333179294888 Eh    ::
         :: add. restraining           0.000000000000 Eh    ::
         :: total charge               0.000000000000 e     ::
         :::::::::::::::::::::::::::::::::::::::::::::::::::::


Property printout bound to 'properties.out'

           -------------------------------------------------
          | TOTAL ENERGY              -13.370435767065 Eh   |
          | GRADIENT NORM               0.561957911148 Eh/α |
          | HOMO-LUMO GAP               0.265554305523 eV   |
           -------------------------------------------------

------------------------------------------------------------------------
 * finished run on 2026/04/17 at 12:14:37.730     
------------------------------------------------------------------------
 total:
 * wall-time:     0 d,  0 h,  0 min,  0.063 sec
 *  cpu-time:     0 d,  0 h,  0 min,  0.060 sec
 * ratio c/w:     0.948 speedup
 SCF:
 * wall-time:     0 d,  0 h,  0 min,  0.046 sec
 *  cpu-time:     0 d,  0 h,  0 min,  0.043 sec
 * ratio c/w:     0.930 speedup


-------------------------   --------------------
FINAL SINGLE POINT ENERGY       -13.370435767070
-------------------------   --------------------


-------------
DIPOLE MOMENT
-------------
                                X             Y             Z
Total Dipole Moment    :     -1.01400      -0.62800      -0.00600
                        -----------------------------------------
Magnitude (a.u.)       :      1.19273
Magnitude (Debye)      :      3.03169


------------------
CARTESIAN GRADIENT
------------------

   1   B   :   -0.022521291   -0.066979926   -0.019160687
   2   B   :    0.057754181    0.059826069    0.091558480
   3   B   :    0.108937516   -0.109441942   -0.004881134
   4   B   :   -0.074617000    0.020045531   -0.080297687
   5   B   :    0.157086364    0.191702591    0.219127851
   6   B   :    0.015402366    0.004913762    0.041077507
   7   B   :   -0.048467909   -0.011515727   -0.049037595
   8   B   :   -0.006525312   -0.068390445    0.010154604
   9   B   :   -0.266765939   -0.006860885   -0.188211266
  10   B   :   -0.040325988    0.058589285    0.037551174
  11   B   :    0.035745374    0.041278783   -0.022696461
  12   B   :    0.084297639   -0.113167095   -0.035184784

Difference to translation invariance:
           :   -0.0000000000   -0.0000000000    0.0000000000

Difference to rotation invariance:
           :   -0.0000000021    0.0000000067    0.0000000238

Norm of the Cartesian gradient     ...    0.5619579111
RMS gradient                       ...    0.0936596519
MAX gradient                       ...    0.2667659394
------------------------------------------------------------------------------
                         ORCA GEOMETRY RELAXATION STEP
------------------------------------------------------------------------------

Reading the OPT-File                    .... done
Getting information on internals        .... done
Copying old internal coords+grads       .... done
Making the new internal coordinates     .... (2022 redundants) done
Validating the new internal coordinates .... (2022 redundants) done
Calculating the B-matrix                .... done
Calculating the G,G- and P matrices     .... done
Transforming gradient to internals      .... done
Projecting the internal gradient        .... done
Number of atoms                         ....  12
Number of internal coordinates          .... 137
Current Energy                          ....   -13.370435767 Eh
Current gradient norm                   ....     0.561957911 Eh/bohr
Maximum allowed component of the step   ....  0.300
Current trust radius                    ....  0.300
Updating the Hessian (BFGS)             .... done
Forming the augmented Hessian           .... done
Diagonalizing the augmented Hessian     .... done
Last element of RFO vector              ....  0.827210791
Lowest eigenvalues of augmented Hessian:
 -0.187192712  0.015719562  0.017960513  0.018570311  0.019825542
Length of the computed step             ....  0.679260627
Warning: the length of the step is outside the trust region - taking restricted step instead
The input lambda is                     ....     0.013583
   iter:   5  x=    0.004746  g=29793.311064 f(x)=   111.983554
   iter:  10  x=   -0.092627  g=   55.160019 f(x)=     2.266143
   iter:  15  x=   -0.634209  g=    0.275032 f(x)=     0.022734
   iter:  20  x=   -0.651174  g=    0.189043 f(x)=    -0.000000
The output lambda is                    ....    -0.651174 (20 iterations)
The final length of the internal step   ....  0.300000000
Converting the step to Cartesian space:
 Initial RMS(Int)=    0.0256307297
Transforming coordinates:
 Iter   0:  RMS(Cart)=    0.0378003008 RMS(Int)=    0.0255770790
done
Storing new coordinates                 .... done
The predicted energy change is          ....    -0.077901838
Previously predicted energy change      ....    -0.140925949
Actually observed energy change         ....    -0.138658102
Ratio of predicted to observed change   ....     0.983907528
New trust radius                        ....     0.450000000

                                .--------------------.
          ----------------------|Geometry convergence|-------------------------
          Item                value                   Tolerance       Converged
          ---------------------------------------------------------------------
          Energy change      -0.1386581023            0.0000010000      NO
          RMS gradient        0.0297265701            0.0000300000      NO
          MAX gradient        0.1969697854            0.0001000000      NO
          RMS step            0.0256307297            0.0006000000      NO
          MAX step            0.1172352669            0.0010000000      NO
          -------------------------------------------------------------------------
          ........................................................
          Max(Bonds)      0.0620      Max(Angles)    3.26
          Max(Dihed)        1.63      Max(Improp)    0.00
          ---------------------------------------------------------------------

The optimization has not yet converged - more geometry cycles are needed


    ---------------------------------------------------------------------------
                         Redundant Internal Coordinates
                            (Angstroem and degrees)

        Definition                    Value    dE/dq     Step     New-Value
    ----------------------------------------------------------------------------
     1. B(B   2,B   1)                1.8316  0.059718 -0.0411    1.7905   
     2. B(B   2,B   0)                2.8556  0.033659 -0.0229    2.8327   
     3. B(B   3,B   1)                1.6357  0.097699 -0.0620    1.5737   
     4. B(B   3,B   0)                2.9272  0.024086 -0.0199    2.9073   
     5. B(B   5,B   2)                2.8510 -0.013361  0.0035    2.8545   
     6. B(B   5,B   4)                2.9182 -0.010099  0.0003    2.9185   
     7. B(B   6,B   5)                1.5409  0.043143 -0.0274    1.5135   
     8. B(B   7,B   4)                2.3501  0.043311 -0.0345    2.3156   
     9. B(B   7,B   6)                2.8292  0.037698 -0.0228    2.8064   
    10. B(B   7,B   5)                2.2257  0.015274 -0.0131    2.2126   
    11. B(B   7,B   0)                3.0329  0.001346 -0.0081    3.0248   
    12. B(B   8,B   4)                1.2897 -0.196970  0.0557    1.3454   
    13. B(B   9,B   0)                1.3812 -0.040979  0.0176    1.3989   
    14. B(B   9,B   7)                2.4690  0.036441 -0.0275    2.4415   
    15. B(B  10,B   5)                2.3991  0.059084 -0.0476    2.3515   
    16. B(B  11,B   4)                2.0586 -0.116129  0.0405    2.0991   
    17. B(B  11,B   2)                1.4319 -0.067649  0.0302    1.4621   
    18. B(B  11,B   8)                1.3322 -0.118978  0.0501    1.3823   
    19. A(B   2,B   0,B   9)          120.60 -0.000613   -0.15    120.46   
    20. A(B   3,B   0,B   9)          139.00  0.005390   -0.47    138.53   
    21. A(B   7,B   0,B   9)           53.27  0.010919   -0.73     52.54   
[...]

Difference to translation invariance:
           :    0.0000000000   -0.0000000000    0.0000000000

Difference to rotation invariance:
           :    0.0000000215   -0.0000000135   -0.0000000143

Norm of the Cartesian gradient     ...    0.0018192462
RMS gradient                       ...    0.0003032077
MAX gradient                       ...    0.0007117574
------------------------------------------------------------------------------
                         ORCA GEOMETRY RELAXATION STEP
------------------------------------------------------------------------------

Reading the OPT-File                    .... done
Getting information on internals        .... done
Copying old internal coords+grads       .... done
Making the new internal coordinates     .... (2022 redundants) done
Validating the new internal coordinates .... (2022 redundants) done
Calculating the B-matrix                .... done
Calculating the G,G- and P matrices     .... done
Transforming gradient to internals      .... done
Projecting the internal gradient        .... done
Number of atoms                         ....  12
Number of internal coordinates          .... 137
Current Energy                          ....   -14.255397006 Eh
Current gradient norm                   ....     0.001819246 Eh/bohr
Maximum allowed component of the step   ....  0.300
Current trust radius                    ....  0.700
Updating the Hessian (BFGS)             .... done
Forming the augmented Hessian           .... done
Diagonalizing the augmented Hessian     .... done
Last element of RFO vector              ....  0.999397588
Lowest eigenvalues of augmented Hessian:
 -0.000007352  0.001914816  0.002692960  0.004728800  0.006600873
Length of the computed step             ....  0.034726268
The final length of the internal step   ....  0.034726268
Converting the step to Cartesian space:
 Initial RMS(Int)=    0.0029668653
Transforming coordinates:
 Iter   0:  RMS(Cart)=    0.0020433419 RMS(Int)=    0.0029562421
done
Storing new coordinates                 .... done
The predicted energy change is          ....    -0.000003681
Previously predicted energy change      ....    -0.000006229
Actually observed energy change         ....    -0.000008518
Ratio of predicted to observed change   ....     1.367645856
New trust radius                        ....     0.700000000

                                .--------------------.
          ----------------------|Geometry convergence|-------------------------
          Item                value                   Tolerance       Converged
          ---------------------------------------------------------------------
          Energy change      -0.0000085184            0.0000010000      NO
          RMS gradient        0.0000850513            0.0000300000      NO
          MAX gradient        0.0004551960            0.0001000000      NO
          RMS step            0.0029668653            0.0006000000      NO
          MAX step            0.0138047325            0.0010000000      NO
          -------------------------------------------------------------------------
          ........................................................
          Max(Bonds)      0.0026      Max(Angles)    0.23
          Max(Dihed)        0.79      Max(Improp)    0.00
          ---------------------------------------------------------------------

The optimization has not yet converged - more geometry cycles are needed


    ---------------------------------------------------------------------------
                         Redundant Internal Coordinates
                            (Angstroem and degrees)

        Definition                    Value    dE/dq     Step     New-Value
    ----------------------------------------------------------------------------
     1. B(B   2,B   1)                1.5202  0.000061 -0.0004    1.5198   
     2. B(B   2,B   0)                3.8743  0.000067 -0.0006    3.8737   
     3. B(B   3,B   1)                1.5043  0.000045 -0.0003    1.5040   
     4. B(B   3,B   0)                1.5204  0.000041 -0.0002    1.5202   
     5. B(B   5,B   2)                3.8317  0.000022 -0.0003    3.8315   
     6. B(B   5,B   4)                2.1566 -0.000086 -0.0026    2.1540   
     7. B(B   6,B   5)                1.5351  0.000053 -0.0002    1.5348   
     8. B(B   7,B   4)                1.5404  0.000013 -0.0000    1.5404   
     9. B(B   7,B   6)                1.6861  0.000152  0.0009    1.6870   
    10. B(B   7,B   5)                1.8819  0.000100  0.0025    1.8844   
    11. B(B   7,B   0)                2.7292 -0.000186  0.0019    2.7311   
    12. B(B   8,B   4)                1.5332 -0.000396  0.0005    1.5337   
    13. B(B   9,B   0)                1.5216 -0.000455  0.0006    1.5222   
    14. B(B   9,B   7)                1.6529  0.000192 -0.0004    1.6525   
    15. B(B  10,B   5)                1.5411  0.000266 -0.0003    1.5408   
    16. B(B  11,B   4)                2.6722 -0.000108  0.0004    2.6726   
    17. B(B  11,B   2)                1.5227 -0.000106  0.0003    1.5230   
    18. B(B  11,B   8)                1.5550  0.000124  0.0004    1.5554   
    19. A(B   2,B   0,B   9)          101.04  0.000062   -0.12    100.92   
    20. A(B   3,B   0,B   9)          139.41  0.000108   -0.01    139.40   
    21. A(B   7,B   0,B   9)           32.15  0.000054   -0.07     32.08   
    22. A(B   3,B   0,B   7)          112.23  0.000067    0.02    112.24   
    23. A(B   2,B   0,B   7)           74.02  0.000005   -0.02     74.01   
    24. A(B   2,B   0,B   3)           38.81  0.000056    0.03     38.84   
    25. A(B   2,B   1,B   3)          141.27  0.000083    0.10    141.37   
    26. A(B   0,B   2,B   1)           38.77 -0.000025   -0.04     38.72   
    27. A(B   1,B   2,B   5)           92.85 -0.000032    0.06     92.91   
    28. A(B   1,B   2,B  11)          138.93 -0.000066   -0.05    138.88   
    29. A(B   0,B   2,B  11)          100.42 -0.000047    0.07    100.49   
    30. A(B   0,B   2,B   5)           55.95  0.000003    0.07     56.02   
    31. A(B   5,B   2,B  11)           50.83 -0.000045    0.01     50.84   
    32. A(B   0,B   3,B   1)          141.15 -0.000115   -0.13    141.02   
    33. A(B   8,B   4,B  11)           30.32  0.000008    0.01     30.33   
    34. A(B   7,B   4,B  11)          113.84  0.000025    0.00    113.84   
    35. A(B   5,B   4,B   7)           58.39  0.000056    0.16     58.55   
    36. A(B   7,B   4,B   8)          143.90  0.000035   -0.03    143.88   
    37. A(B   5,B   4,B  11)           79.19  0.000015    0.04     79.22   
    38. A(B   5,B   4,B   8)          101.91 -0.000011    0.04    101.95   
    39. A(B   4,B   5,B  10)           58.76  0.000064    0.03     58.79   
    40. A(B   2,B   5,B   7)           83.69 -0.000017   -0.04     83.65   
    41. A(B   2,B   5,B  10)           35.87  0.000004   -0.01     35.86   
    42. A(B   2,B   5,B   6)          110.55  0.000030   -0.12    110.43   
    43. A(B   6,B   5,B   7)           58.08  0.000026   -0.03     58.05   
    44. A(B   7,B   5,B  10)           96.15  0.000075    0.00     96.15   
    45. A(B   2,B   5,B   4)           67.84 -0.000028    0.03     67.87   
    46. A(B   4,B   5,B   7)           44.20  0.000010    0.03     44.23   
    47. A(B   4,B   5,B   6)          102.21  0.000036   -0.01    102.20   
    48. A(B   6,B   5,B  10)          143.77  0.000080   -0.13    143.64   
    49. A(B   5,B   6,B   7)           71.32 -0.000010    0.06     71.39   
    50. A(B   6,B   7,B   9)           55.50  0.000149   -0.04     55.47   
    51. A(B   0,B   7,B   5)          101.68  0.000060   -0.00    101.68   
    52. A(B   5,B   7,B   9)           98.03  0.000095   -0.04     97.99   
    53. A(B   4,B   7,B   6)          127.91 -0.000084   -0.23    127.68   
    54. A(B   4,B   7,B   5)           77.41 -0.000066   -0.19     77.22   
    55. A(B   0,B   7,B   4)          124.20 -0.000009    0.07    124.27   
    56. A(B   4,B   7,B   9)          152.45 -0.000074    0.00    152.45   
    57. A(B   0,B   7,B   9)           29.34 -0.000075   -0.03     29.31   
    58. A(B   5,B   7,B   6)           50.60 -0.000016   -0.04     50.56   
    59. A(B   0,B   7,B   6)           76.00  0.000081   -0.04     75.96   
    60. A(B   4,B   8,B  11)          119.84  0.000086   -0.03    119.81   
    61. A(B   0,B   9,B   7)          118.51  0.000021    0.10    118.61   
    62. A(B   4,B  11,B   8)           29.85 -0.000094    0.02     29.86   
    63. A(B   2,B  11,B   8)          134.89 -0.000001    0.05    134.94   
    64. A(B   2,B  11,B   4)          116.57  0.000036    0.01    116.58   
    65. D(B   1,B   2,B   0,B   9)    172.29 -0.000079    0.31    172.60   
    66. D(B   1,B   2,B   0,B   7)   -170.09 -0.000068    0.32   -169.76   
    67. D(B   1,B   2,B   0,B   3)     -0.42 -0.000006    0.15     -0.27   
    68. D(B  11,B   2,B   0,B   7)      4.41 -0.000001    0.02      4.42   
    69. D(B  11,B   2,B   1,B   3)     -7.83  0.000117   -0.52     -8.35   
    70. D(B   0,B   2,B   1,B   3)      0.43  0.000007   -0.17      0.25   
    71. D(B   5,B   2,B   1,B   3)     17.25  0.000062   -0.33     16.92   
    72. D(B  11,B   2,B   0,B   9)    -13.21 -0.000012    0.00    -13.21   
    73. D(B  11,B   2,B   0,B   3)    174.07  0.000061   -0.16    173.91   
    74. D(B   1,B   3,B   0,B   9)    -10.60 -0.000129    0.17    -10.43   
    75. D(B   1,B   3,B   0,B   7)     11.17 -0.000054    0.07     11.23   
    76. D(B   0,B   3,B   1,B   2)     -1.09 -0.000015    0.28     -0.80   
    77. D(B   1,B   3,B   0,B   2)      0.43  0.000005   -0.13      0.29   
    78. D(B   6,B   5,B   2,B  11)    153.63  0.000040    0.04    153.67   
    79. D(B   6,B   5,B   2,B   1)     -5.31  0.000037    0.15     -5.16   
    80. D(B   2,B   5,B   4,B   8)    -42.73 -0.000025    0.01    -42.72   
    81. D(B   7,B   5,B   4,B   8)   -147.12 -0.000023    0.13   -146.99   
    82. D(B   6,B   5,B   4,B   8)   -150.16 -0.000042    0.11   -150.05   
    83. D(B   6,B   5,B   4,B   7)     -3.04 -0.000019   -0.02     -3.06   
    84. D(B   4,B   5,B   2,B   1)   -100.54  0.000018    0.08   -100.46   
    85. D(B   6,B   5,B   4,B  11)   -129.96  0.000000    0.11   -129.85   
    86. D(B   7,B   5,B   2,B   0)    -45.11  0.000063    0.00    -45.11   
    87. D(B   7,B   5,B   4,B  11)   -126.92  0.000019    0.13   -126.79   
    88. D(B   7,B   5,B   2,B  11)    101.19  0.000032    0.04    101.23   
    89. D(B   7,B   5,B   2,B   1)    -57.75  0.000030    0.15    -57.60   
    90. D(B   6,B   5,B   2,B   0)      7.33  0.000070    0.00      7.33   
    91. D(B   2,B   5,B   4,B  11)    -22.52  0.000017    0.01    -22.51   
    92. D(B   7,B   6,B   5,B  10)    -50.46 -0.000098   -0.15    -50.60   
    93. D(B   7,B   6,B   5,B   4)      2.50  0.000015    0.01      2.50   
    94. D(B   7,B   6,B   5,B   2)    -68.17  0.000031   -0.04    -68.22   
    95. D(B   9,B   7,B   0,B   2)   -146.06 -0.000043    0.12   -145.94   
    96. D(B   0,B   7,B   6,B   5)    118.35  0.000014    0.05    118.40   
    97. D(B   9,B   7,B   6,B   5)    141.60 -0.000052    0.02    141.62   
    98. D(B   0,B   7,B   5,B  10)     92.03 -0.000033   -0.06     91.97   
    99. D(B   0,B   7,B   5,B   4)    122.81 -0.000024    0.07    122.88   
   100. D(B   0,B   7,B   5,B   2)     58.32 -0.000004   -0.03     58.29   
   101. D(B   0,B   7,B   5,B   6)    -60.69 -0.000044    0.08    -60.61   
   102. D(B   9,B   7,B   5,B  10)    121.58 -0.000099   -0.09    121.50   
   103. D(B   9,B   7,B   5,B   2)     87.88 -0.000070   -0.06     87.82   
   104. D(B   9,B   7,B   5,B   6)    -31.13 -0.000109    0.05    -31.08   
   105. D(B   5,B   7,B   4,B   8)     64.36  0.000031    0.36     64.72   
   106. D(B   0,B   7,B   4,B   5)    -95.69 -0.000030    0.14    -95.55   
   107. D(B   0,B   7,B   4,B  11)    -36.54  0.000017    0.32    -36.22   
   108. D(B   0,B   7,B   4,B   8)    -31.33  0.000001    0.49    -30.83   
   109. D(B   9,B   7,B   4,B   5)    -83.18 -0.000115    0.43    -82.75   
   110. D(B   9,B   7,B   5,B   4)    152.37 -0.000089    0.04    152.41   
   111. D(B   9,B   7,B   4,B  11)    -24.03 -0.000067    0.62    -23.41   
   112. D(B   9,B   7,B   4,B   8)    -18.82 -0.000083    0.79    -18.03   
   113. D(B   6,B   7,B   0,B   2)   -104.46  0.000030    0.08   -104.38   
   114. D(B   6,B   7,B   0,B   9)     41.60  0.000073   -0.04     41.56   
   115. D(B   5,B   7,B   0,B   3)    -67.45  0.000051   -0.12    -67.57   
   116. D(B   5,B   7,B   0,B   2)    -60.48  0.000021    0.03    -60.44   
   117. D(B   5,B   7,B   0,B   9)     85.59  0.000064   -0.09     85.50   
   118. D(B   4,B   7,B   6,B   5)     -4.34 -0.000019    0.06     -4.27   
   119. D(B   9,B   7,B   0,B   3)   -153.04 -0.000013   -0.03   -153.07   
   120. D(B  11,B   8,B   4,B   5)     42.22  0.000094    0.01     42.23   
   121. D(B  11,B   8,B   4,B   7)     -9.47  0.000034   -0.32     -9.79   
   122. D(B   0,B   9,B   7,B   4)    -21.45  0.000095   -0.54    -21.99   
   123. D(B   0,B   9,B   7,B   6)   -128.58 -0.000000   -0.03   -128.62   
   124. D(B   0,B   9,B   7,B   5)    -99.59  0.000036   -0.07    -99.66   
   125. D(B   7,B   9,B   0,B   3)     40.17  0.000062   -0.11     40.06   
   126. D(B   7,B   9,B   0,B   2)     33.15 -0.000033    0.11     33.26   
   127. D(B   4,B  11,B   2,B   1)    -12.27 -0.000072    0.31    -11.96   
   128. D(B   2,B  11,B   8,B   4)     62.13 -0.000086   -0.05     62.09   
   129. D(B   8,B  11,B   4,B   5)   -137.98  0.000092   -0.01   -137.99   
   130. D(B   8,B  11,B   4,B   7)    173.92  0.000026   -0.23    173.69   
   131. D(B   2,B  11,B   4,B   5)     86.47  0.000067   -0.07     86.40   
   132. D(B   2,B  11,B   4,B   7)     38.37 -0.000000   -0.29     38.07   
   133. D(B   2,B  11,B   4,B   8)   -135.55 -0.000026   -0.07   -135.61   
   134. D(B   8,B  11,B   2,B   5)    -74.85  0.000089    0.08    -74.77   
   135. D(B   8,B  11,B   2,B   1)    -41.73  0.000037    0.31    -41.43   
   136. D(B   4,B  11,B   2,B   0)    -17.52  0.000001    0.11    -17.41   
   137. D(B   4,B  11,B   2,B   5)    -45.38 -0.000019    0.08    -45.30   
    ----------------------------------------------------------------------------

Geometry step timings:
Preparation and reading OPT file:      0.000 s ( 0.620 %)
Internal coordinates            :      0.000 s ( 0.855 %)
B/P matrices and projection     :      0.001 s (21.552 %)
Hessian update/contruction      :      0.001 s (17.511 %)
Making the step                 :      0.002 s (32.735 %)
Converting the step to Cartesian:      0.000 s ( 2.309 %)
Storing new data                :      0.000 s ( 0.855 %)
Checking convergence            :      0.000 s ( 1.176 %)
Final printing                  :      0.001 s (22.386 %)
Total time                      :      0.005 s

Time for energy+gradient        :      0.049 s
Time for complete geometry iter :      0.055 s




    ----------------------------------------------------------------------------
                                  WARNING !!!
       The optimization did not converge but reached the maximum number of
       optimization cycles.
       Please check your results very carefully.
    ----------------------------------------------------------------------------



--------------------------------
SUGGESTED CITATIONS FOR THIS RUN
--------------------------------

Below you find a list of papers that are relevant to this ORCA run
We neither can nor want to force you to cite these papers, but we appreciate if you do
You receive ORCA, which is the product of decades of hard work by many enthusiastic individuals, for free
The only thing we kindly ask in return is that you cite our papers,
We deeply appreciate it, if you show your appreciation for ORCA by not just citing the generic ORCA reference.

Please note that relegating all ORCA citations to the supporting information does *not* help us.
SI sections are not indexed - citations you put there will not count into any citation statistics
But we need these citations in order to attract the funding resources that allow us to do what we are doing

Therefore, if you are a happy ORCA user, please consider citing a few of the papers listed below in the main body of your paper

In addition to the list printed below, the program has created the file random_d1.70_003_m3.bibtex that contains the list in bibtex format
You can import this file easily into all common literature databanks and citation aid programs

It goes without saying that in many instances, there are alternative algorithms to achieve similar
results as the ones you have gotten from ORCA. It is, of course, also the case that in some instances
ORCA just re-implements algorithms worked out by others. We are fully aware of that and we are also
fully appreciative of our colleagues work. Hence this citation list should not be read as indicating
that the listed papers, which are focused on our own work, are the only ones worth citing. It simply
meant to make it easier for users to cite ORCA specific papers. It is not a substitute for doing your
own literature research and citing the relevant literature in a scientifically appropriate manner.

List of essential papers. We consider these as the minimum necessary citations

  1. Bannwarth, C.; Ehlert, S.; Grimme, S.
     GFN2-xTB—An Accurate and Broadly Parametrized Self-Consistent Tight-Binding Quantum Chemical Method with Multipole Electrostatics and Density-Dependent Dispersion Contributions
     J. Chem. Theory Comput. 2019 15(3), 1652-1671
     doi.org/10.1021/acs.jctc.8b01176
  2. Neese, F.
     Software update: the ORCA program system, version 6.0
     WIRES Comput. Molec. Sci. 2025 15(1), e70019
     doi.org/10.1002/wcms.70019

List of papers to cite with high priority. The work reported in these papers was absolutely
necessary for this run to complete.
Our perspective: the developers of density functionals and basis sets usually get cited in chemistry papers
Good! But without the algorithms to do something with them, the functionals or basis sets would not do anything.
Hence, in our opinion, the algorithm design and method developments papers are equally worthy of getting cited

  1. Bannwarth, C.; Caldeweyher, E.; Ehlert, S.; Hansen, A.; Pracht, P.; Seibert, J.; Spicher, S.; Grimme, S.
     Extended tight-binding quantum chemistry methods
     WIRES Comput. Molec. Sci. 2020 11(2), e1493
     doi.org/10.1002/wcms.1493

List of suggested additional citations. These are papers that are important in the 'surrounding' of 
of this run, or papers that preceded the highly important papers. If you like your results we are grateful for a citation.

  1. Neese, F.
     The ORCA program system
     WIRES Comput. Molec. Sci. 2012 2(1), 73-78
     doi.org/10.1002/wcms.81
  2. Neese, F.
     Software update: the ORCA program system, version 4.0
     WIRES Comput. Molec. Sci. 2018 8(1), 1-6
     doi.org/10.1002/wcms.1327
  3. Neese, F.; Wennmohs, F.; Becker, U.; Riplinger, C.
     The ORCA quantum chemistry program package
     J. Chem. Phys. 2020 152(22), 224108
     doi.org/10.1063/5.0004608
  4. Neese, F.
     Software update: The ORCA program system—Version 5.0
     WIRES Comput. Molec. Sci. 2022 12(1), e1606
     doi.org/10.1002/wcms.1606

List of optional additional citations

  1. Neese, F.
     Approximate second-order SCF convergence for spin unrestricted wavefunctions
     Chem. Phys. Lett. 2000 325(1-3), 93-98
     doi.org/10.1016/s0009-2614(00)00662-x

Timings for individual modules:

Sum of individual times          ...        3.215 sec (=   0.054 min)
Geometry relaxation              ...        0.386 sec (=   0.006 min)  12.0 %
XTB module                       ...        2.829 sec (=   0.047 min)  88.0 %
                             ****ORCA TERMINATED NORMALLY****
TOTAL RUN TIME: 0 days 0 hours 0 minutes 3 seconds 741 msec
