
                                 *****************
                                 * O   R   C   A *
                                 *****************

                                            #,                                       
                                            ###                                      
                                            ####                                     
                                            #####                                    
                                            ######                                   
                                           ########,                                 
                                     ,,################,,,,,                         
                               ,,#################################,,                 
                          ,,##########################################,,             
                       ,#########################################, ''#####,          
                    ,#############################################,,   '####,        
                  ,##################################################,,,,####,       
                ,###########''''           ''''###############################       
              ,#####''   ,,,,##########,,,,          '''####'''          '####       
            ,##' ,,,,###########################,,,                        '##       
           ' ,,###''''                  '''############,,,                           
         ,,##''                                '''############,,,,        ,,,,,,###''
      ,#''                                            '''#######################'''  
     '                                                          ''''####''''         
             ,#######,   #######,   ,#######,      ##                                
            ,#'     '#,  ##    ##  ,#'     '#,    #''#        ,####,    ,#,          
            ##       ##  ##   ,#'  ##            #'  '#       #'       ,# #          
            ##       ##  #######   ##           ,######,      #####,      #          
            '#,     ,#'  ##    ##  '#,     ,#' ,#      #,     #,   #      #          
             '#######'   ##     ##  '#######'  #'      '#     '####' #    #          



                #########################################################
                #                        -***-                          #
                #          Department of theory and spectroscopy        #
                #                                                       #
                #                      Frank Neese                      #
                #                                                       #
                #     Directorship, Architecture, Infrastructure        #
                #                    SHARK, DRIVERS                     #
                #        Core code/Algorithms in most modules           #
                #                                                       #
                #        Max Planck Institute fuer Kohlenforschung      #
                #                Kaiser Wilhelm Platz 1                 #
                #                 D-45470 Muelheim/Ruhr                 #
                #                      Germany                          #
                #                                                       #
                #                  All rights reserved                  #
                #                        -***-                          #
                #########################################################


                         Program Version 6.1.1  -  RELEASE   -
                                (GIT: $487d211c$)
                          ($2025-11-21 10:33:24 +0100$)
                                                                         
                                  - NO-DMRG VERSION -                    
                                                                         


 With contributions from (in alphabetic order):
[Max-Planck-Institut fuer Kohlenforschung]                               
  Daniel Aravena         : Magnetic Suceptibility                        
  Michael Atanasov       : Ab Initio Ligand Field Theory (pilot matlab implementation)
  Alexander A. Auer      : GIAO ZORA, VPT2 properties, NMR spectrum      
  Ute Becker             : All parallelization in ORCA, NUMFREQ, NUMCALC 
  Giovanni Bistoni       : ED, misc. LED, open-shell LED, HFLD           
  Dmytro Bykov           : pre 5.0 version of the SCF Hessian            
  Marcos Casanova-Páez   : Triplet and SCS-CIS(D). UHF-(DLPNO)-IP/EA/STEOM-CCSD. UHF-CVS-IP/STEOM-CCSD   
  Vijay G. Chilkuri      : MRCI spin determinant printing, contributions to CSF-ICE 
  Pauline Colinet        : FMM embedding                                 
  Dipayan Datta          : RHF DLPNO-CCSD density                        
  Achintya Kumar Dutta   : EOM-CC, STEOM-CC                              
  Nicolas Foglia         : Exact transition moments, OPA infrastructure, MCD improvements    
  Dmitry Ganyushin       : Spin-Orbit,Spin-Spin,Magnetic field MRCI      
  Miquel Garcia-Rates    : C-PCM and meta-GGA Hessian, CCSD/C-PCM, Gaussian charge scheme 
  Tiago L. C. Gouveia    : GS-ROHF, GS-ROCIS                             
  Yang Guo               : DLPNO-NEVPT2, F12-NEVPT2, CIM, IAO-localization        
  Andreas Hansen         : Spin unrestricted coupled pair/coupled cluster methods 
  Ingolf Harden          : AUTO-CI MPn and infrastructure                
  Benjamin Helmich-Paris : MC-RPA, TRAH-(SCF,CASSCF), AVAS, COSX integrals, SCF dyn. polar., MC-PDFT, srDFT 
  Lee Huntington         : MR-EOM, pCC                                   
  Robert Izsak           : Overlap fitted RIJCOSX, COSX-SCS-MP3, EOM     
  Riya Kayal             : Wick's Theorem for AUTO-CI, AUTO-CI UHF-CCSDT 
  Emily Kempfer          : AUTO-CI RHF CISDT and CCSDT, approximate NEVPT4
  Christian Kollmar      : KDIIS, OOCD, Brueckner-CCSD(T), CCSD density, CASPT2, CASPT2-K, improved NEVPT2 
  Axel Koslowski         : Symmetry handling                             
  Simone Kossmann        : meta-GGA functionals, TD-DFT gradient, OOMP2, (MP2 Hessian; deprecated post 5.0) 
  Lucas Lang             : DCDCAS, Hyperfine gauge corrections, ICE-SOC+SSC
  Marvin Lechner         : AUTO-CI (C++ implementation), FIC-MRCC        
  Spencer Leger          : CASSCF response                               
  Dagmar Lenk            : GEPOL surface, SMD, ORCA-2-JSON               
  Dimitrios Liakos       : Extrapolation schemes; Compound Job, Property file
  Dimitrios Manganas     : Further ROCIS development; embedding schemes. LFT, Crystal Embedding 
  Dimitrios Pantazis     : SARC Basis sets                               
  Anastasios Papadopoulos: AUTO-CI, single reference methods and gradients 
  Taras Petrenko         : pre 6.0 DFT Hessian and TD-DFT gradient,  ECA, NRVS 
  Petra Pikulova         : Analytic Raman intensities                    
  Peter Pinski           : DLPNO-MP2, DLPNO-MP2 Gradient                 
  Shashank Vittal Rao    : ES-AILFT, MagRelax                            
  Christoph Reimann      : Effective Core Potentials                     
  Marius Retegan         : Local ZFS, SOC                                
  Christoph Riplinger    : Optimizer, TS searches, QM/MM, DLPNO-CCSD(T), (RO)-DLPNO pert. Triples 
  Michael Roemelt        : Original ROCIS implementation, recursive CI coupling coefficients
  Masaaki Saitow         : Open-shell DLPNO-CCSD energy and density      
  Barbara Sandhoefer     : DKH picture change effects                    
  Yorick L. A. Schmerwitz: GMF and freeze-and-release deltaSCF, NEB S-IDPP initial path                    
  Kantharuban Sivalingam : CASSCF convergence/infrastructure, NEVPT2, NEVPT3, NEVPT4(SD), FIC-MRCI and CEPA variants
  Bernardo de Souza      : ESD, SOC TD-DFT                               
  Georgi L. Stoychev     : AutoAux, RI-MP2 NMR, DLPNO-MP2 response, X2C  
  Van Anh Tran           : RI-MP2 g-tensors                              
  Willem Van den Heuvel  : Paramagnetic NMR                              
  Zikuan Wang            : NOTCH, Electric field optimization            
  Frank Wennmohs         : Technical directorship and infrastructure     
  Hang Xu                : AUTO-CI-Response properties                   
                                                                         
[FACCTs GmbH]                                                            
  Markus Bursch, Nicolas Foglia, Miquel Garcia-Rates, Ingolf Harden, Hagen Neugebauer, Anastasios Papadopoulos, 
  Christoph Riplinger, Bernardo de Souza, Georgi L. Stoychev                                                    
                                                                 
  APM, various basis sets, CI-OPT, improved COSX, DLPNO-Multilevel,           
  DOCKER, DRACO, updates on ESD, Fragmentator, GOAT, IRC, LR-CPCM, L-BFGS, MBIS, meta-GGA TD-DFT gradient, ML-optimized integration grids, 
  MM, NACMEs, nearIR, NEB, NEB-TS, NL-DFT gradient (VV10), 2- and 3-layer-ONIOM, interface openCOSMO-RS, QMMM,   
  Crystal-QMMM, RESP, rigid body optimization, SF, symmetry and pop. for TD-DFT, various functionals, SOLVATOR                                   
                                                                         
[Other institutions]                                                     
  V. Asgeirsson          : NEB                                           
  Christoph Bannwarth    : sTDA-DFT, sTD-DFT, PBEh-3c, B97-3c, D3        
  Giovanni Bistoni       : ETS/NOCV, ADLD/ADEX, COVALED                  
  Martin Brehm           : Molecular dynamics                            
  Ronald Cardenas        : ETS/NOCV                                      
  Martina Colucci        : COVALED                                       
  Sebastian Ehlert       : rSCAN, r2SCAN, r2SCAN-3c, D4, dhf basis sets  
  Marvin Friede          : D4 for Fr, Ra, Ac-Lr                          
  Lars Goerigk           : TD-DFT with DH, B97 family of functionals     
  Stefan Grimme          : VdW corrections, initial TS optimization, DFT functionals, gCP, sTDA/sTD-DF 
  Waldemar Hujo          : DFT-NL                                        
  H. Jonsson             : NEB                                           
  Holger Kruse           : gCP                                           
  Marcel Mueller         : wB97X-3c, vDZP basis set                      
  Hagen Neugebauer       : wr2SCAN, Native XTB                           
  Gianluca Regni         : ADLD/ADEX                                     
  Tobias Risthaus        : pre 6.0 range-separated hybrid DFT and stability analysis
  Lukas Wittmann         : regularized MP2, r2SCAN double-hybrids, wr2SCAN        
                                                                         
We gratefully acknowledge several colleagues who have allowed us to      
interface, adapt or use parts of their codes:                            
  Ed Valeev, F. Pavosevic, A. Kumar             : LibInt (2-el integral package), F12 methods 
  Garnet Chan, S. Sharma, J. Yang, R. Olivares  : DMRG                   
  Ulf Ekstrom                                   : XCFun DFT Library      
  Mihaly Kallay                                 : mrcc  (arbitrary order and MRCC methods)
  Frank Weinhold                                : gennbo (NPA and NBO analysis)           
  Simon Mueller                                 : openCOSMO-RS                            
  Christopher J. Cramer and Donald G. Truhlar   : smd solvation model                     
  S Lehtola, MJT Oliveira, MAL Marques          : LibXC Library                           
  Liviu Ungur et al                             : ANISO software                          


 Your calculation uses the libint2 library for the computation of 2-el integrals
 For citations please refer to: http://libint.valeyev.net

 Your ORCA version has been built with support for libXC version: 7.0.0
 For citations please refer to: https://libxc.gitlab.io

 This ORCA versions uses:
   CBLAS   interface :  Fast vector & matrix operations
   LAPACKE interface :  Fast linear algebra routines
   SCALAPACK package :  Parallel linear algebra routines
   Shared memory     :  Shared parallel matrices
   BLAS/LAPACK       :  OpenBLAS 0.3.29  USE64BITINT DYNAMIC_ARCH NO_AFFINITY Zen SINGLE_THREADED
        Core in use  :  Zen
   Copyright (c) 2011-2014, The OpenBLAS Project


  ***********************************
  * Starting time: Fri Apr 17 12:14:49 2026
  * Host name:     vmi3233575
  * Process ID:    339671
  * Working dir.:  /root/orca_b12_vps_pack/jobs/01_xtb/mult_3
  ***********************************

NOTE: MaxCore=500 MB was set to SCF,MP2,MDCI,CIPSI,MRCI,RASCI and CIS
      => If you want to overwrite this, your respective input block should be placed after the MaxCore statement


***************************************
The coordinates will be read from file: ../../../starts/random_d1.90_010.xyz
***************************************


Your calculation utilizes the semiempirical GFN2-xTB method
Please cite in your paper:
Bannwarth, C.; Ehlert S.; Grimme, S. J. Chem. Theory Comput. 2019, 15, 1652.
   

================================================================================

================================================================================
                                        WARNINGS
                       Please study these warnings very carefully!
================================================================================


WARNING: Geometry Optimization
  ===> : Switching off AutoStart
         For restart on a previous wavefunction, please use MOREAD

WARNING: Found dipole moment calculation with XTB calculation
  ===> : Switching off dipole moment calculation

Environment variable XTBEXE for xtb has been set!

================================================================================
                                       INPUT FILE
================================================================================
NAME = random_d1.90_010_m3.inp
|  1> ! GFN2-xTB TightSCF TightOpt
|  2> 
|  3> %pal
|  4>   nprocs 1
|  5> end
|  6> 
|  7> %maxcore 500
|  8> 
|  9> * xyzfile 0 3 ../../../starts/random_d1.90_010.xyz
| 10> 
| 11>                          ****END OF INPUT****
================================================================================

                       *****************************
                       * Geometry Optimization Run *
                       *****************************

Geometry optimization settings:
Update method            Update   .... BFGS
Choice of coordinates    CoordSys .... (2022) Redundant Internals
Initial Hessian          InHess   .... Almloef's Model
Max. no of cycles        MaxIter  .... 50

Convergence Tolerances:
Energy Change            TolE     ....  1.0000e-06 Eh
Max. Gradient            TolMAXG  ....  1.0000e-04 Eh/bohr
RMS Gradient             TolRMSG  ....  3.0000e-05 Eh/bohr
Max. Displacement        TolMAXD  ....  1.0000e-03 bohr
RMS Displacement         TolRMSD  ....  6.0000e-04 bohr
Strict Convergence                .... False

------------------------------------------------------------------------------
                        ORCA OPTIMIZATION COORDINATE SETUP
------------------------------------------------------------------------------

The optimization will be done in redundant internal coordinates (2022)
Making redundant internal coordinates   ...  (2022 redundants) done
Evaluating the initial hessian          ...  (Almloef) done
Evaluating the coordinates              ...  done
Calculating the B-matrix                .... done
Calculating the G-matrix                .... done
The number of degrees of freedom        ....  166

    -----------------------------------------------------------------
                    Redundant Internal Coordinates


    -----------------------------------------------------------------
         Definition                    Initial Value    Approx d2E/dq
    -----------------------------------------------------------------
      1. B(B   4,B   0)                  3.1276         0.010000   
      2. B(B   4,B   1)                  3.0831         0.010000   
      3. B(B   5,B   4)                  2.7529         0.010000   
      4. B(B   5,B   3)                  2.2727         0.032745   
      5. B(B   5,B   2)                  1.5107         0.538081   
      6. B(B   6,B   5)                  2.2400         0.036913   
      7. B(B   7,B   0)                  2.3535         0.024329   
      8. B(B   8,B   3)                  2.3414         0.025442   
      9. B(B   8,B   0)                  2.9997         0.010000   
     10. B(B   8,B   5)                  2.9758         0.010000   
     11. B(B   8,B   2)                  2.8907         0.010000   
     12. B(B   9,B   0)                  2.5960         0.010000   
     13. B(B   9,B   5)                  3.0466         0.010000   
     14. B(B   9,B   4)                  1.3188         1.088778   
     15. B(B  10,B   0)                  2.6270         0.010000   
     16. B(B  10,B   7)                  2.1070         0.060190   
     17. B(B  11,B   1)                  2.5246         0.012979   
     18. B(B  11,B   0)                  1.9619         0.102550   
     19. B(B  11,B   2)                  1.9977         0.089914   
     20. A(B   8,B   0,B   9)          116.2119         0.128711   
     21. A(B   7,B   0,B  11)          108.0281         0.204136   
     22. A(B   8,B   0,B  10)           63.5339         0.127700   
     23. A(B   4,B   0,B  11)           99.7185         0.149493   
     24. A(B   4,B   0,B   8)          115.8108         0.114525   
     25. A(B   4,B   0,B   7)          121.4804         0.132680   
     26. A(B   4,B   0,B  10)          126.3276         0.123795   
     27. A(B   7,B   0,B   8)          108.7097         0.137582   
     28. A(B  10,B   0,B  11)          133.9399         0.180716   
     29. A(B   7,B   0,B   9)          101.4980         0.156956   
     30. A(B   4,B   0,B   9)           24.4545         0.124704   
     31. A(B   9,B   0,B  11)          121.9178         0.183112   
     32. A(B   9,B   0,B  10)          103.2978         0.143133   
     33. A(B   8,B   0,B  11)          100.0313         0.156281   
     34. A(B   7,B   0,B  10)           49.6803         0.155226   
     35. A(B   4,B   1,B  11)           89.3501         0.128317   
     36. A(B   5,B   2,B   8)           78.2202         0.196195   
     37. A(B   5,B   2,B  11)          106.3600         0.314242   
     38. A(B   8,B   2,B  11)          102.7558         0.160500   
     39. A(B   5,B   3,B   8)           80.3084         0.178824   
     40. A(B   1,B   4,B   9)          106.4365         0.196148   
     41. A(B   0,B   4,B   5)           47.1154         0.120339   
     42. A(B   0,B   4,B   1)           65.7106         0.112814   
     43. A(B   0,B   4,B   9)           54.5753         0.192258   
     44. A(B   1,B   4,B   5)           76.9830         0.121519   
     45. A(B   5,B   4,B   9)           89.7162         0.230004   
     46. A(B   2,B   5,B   6)          118.7604         0.273135   
     47. A(B   3,B   5,B   8)           50.8566         0.142002   
     48. A(B   4,B   5,B   9)           25.6505         0.122522   
     49. A(B   6,B   5,B   8)          126.7717         0.143459   
     50. A(B   3,B   5,B   6)           93.6230         0.186718   
     51. A(B   3,B   5,B   9)           78.2453         0.138973   
     52. A(B   6,B   5,B   9)          104.5699         0.140347   
     53. A(B   2,B   5,B   9)          128.3294         0.183166   
     54. A(B   4,B   5,B   8)          129.9274         0.124554   
     55. A(B   3,B   5,B   4)           96.2377         0.152796   
     56. A(B   2,B   5,B   3)          122.3999         0.268208   
     57. A(B   4,B   5,B   6)           85.3992         0.154550   
     58. A(B   2,B   5,B   4)          129.9568         0.209213   
     59. A(B   2,B   5,B   8)           71.9806         0.188874   
     60. A(B   8,B   5,B   9)          104.3026         0.116850   
     61. A(B   0,B   7,B  10)           71.9251         0.191055   
     62. A(B   2,B   8,B   5)           29.7992         0.120704   
     63. A(B   3,B   8,B   5)           48.8350         0.139060   
     64. A(B   2,B   8,B   3)           78.4435         0.142729   
     65. A(B   0,B   8,B   5)           46.8413         0.117958   
     66. A(B   0,B   8,B   2)           50.8370         0.120081   
     67. A(B   0,B   8,B   3)           71.2587         0.138077   
     68. A(B   0,B   9,B   4)          100.9702         0.249646   
     69. A(B   0,B   9,B   5)           48.9914         0.127191   
     70. A(B   4,B   9,B   5)           64.6333         0.199452   
     71. A(B   0,B  10,B   7)           58.3945         0.170296   
     72. A(B   1,B  11,B   2)          103.2810         0.185945   
     73. A(B   0,B  11,B   1)           96.5606         0.188874   
     74. A(B   0,B  11,B   2)           79.4301         0.243777   
     75. D(B   9,B   4,B   0,B  11)    156.8016         0.010000   
     76. D(B   5,B   4,B   0,B  10)    108.7267         0.010000   
     77. D(B   9,B   4,B   0,B   8)    -96.9896         0.010000   
     78. D(B   0,B   4,B   1,B  11)    -16.8365         0.010000   
     79. D(B   5,B   4,B   0,B   8)     33.7286         0.010000   
     80. D(B   5,B   4,B   1,B  11)     31.7128         0.010000   
     81. D(B   9,B   4,B   1,B  11)    -54.0721         0.010000   
     82. D(B   9,B   4,B   0,B   7)     38.5693         0.010000   
     83. D(B   5,B   4,B   0,B   7)    169.2874         0.010000   
     84. D(B   5,B   4,B   0,B  11)    -72.4803         0.010000   
     85. D(B   9,B   4,B   0,B  10)    -21.9914         0.010000   
     86. D(B   3,B   5,B   4,B   9)    -45.4900         0.010000   
     87. D(B   6,B   5,B   4,B   0)   -176.7845         0.010000   
     88. D(B   3,B   5,B   4,B   1)   -152.4416         0.010000   
     89. D(B   2,B   5,B   4,B   9)     97.1431         0.010000   
     90. D(B   2,B   5,B   4,B   1)     -9.8085         0.010000   
     91. D(B   6,B   5,B   4,B   9)   -138.6415         0.010000   
     92. D(B   4,B   5,B   3,B   8)    138.0311         0.010000   
     93. D(B   3,B   5,B   2,B  11)    106.9626         0.016630   
     94. D(B   6,B   5,B   3,B   8)   -136.2087         0.010000   
     95. D(B   9,B   5,B   3,B   8)    119.6514         0.010000   
     96. D(B   6,B   5,B   2,B  11)   -137.3358         0.016630   
     97. D(B   6,B   5,B   2,B   8)    122.6529         0.016630   
     98. D(B   2,B   5,B   4,B   0)     59.0001         0.010000   
     99. D(B   2,B   5,B   3,B   8)     -8.5338         0.010000   
    100. D(B   4,B   5,B   2,B  11)    -27.4302         0.016630   
    101. D(B   4,B   5,B   2,B   8)   -127.4416         0.016630   
    102. D(B   8,B   5,B   2,B  11)    100.0114         0.016630   
    103. D(B   6,B   5,B   4,B   1)    114.4069         0.010000   
    104. D(B   3,B   5,B   2,B   8)      6.9513         0.016630   
    105. D(B  10,B   7,B   0,B  11)    132.9129         0.010000   
    106. D(B  10,B   7,B   0,B   4)   -113.0424         0.010000   
    107. D(B  10,B   7,B   0,B   9)    -97.7717         0.010000   
    108. D(B  10,B   7,B   0,B   8)     25.2376         0.010000   
    109. D(B   2,B   8,B   5,B   9)    126.1640         0.010000   
    110. D(B   2,B   8,B   5,B   4)    127.4738         0.010000   
    111. D(B   2,B   8,B   5,B   6)   -112.8639         0.010000   
    112. D(B   3,B   8,B   5,B   9)    -61.4070         0.010000   
    113. D(B   3,B   8,B   5,B   4)    -60.0972         0.010000   
    114. D(B   3,B   8,B   5,B   6)     59.5651         0.010000   
    115. D(B   3,B   8,B   5,B   2)    172.4290         0.010000   
    116. D(B   0,B   8,B   3,B   5)    -48.4837         0.010000   
    117. D(B   2,B   8,B   3,B   5)      3.8320         0.010000   
    118. D(B   0,B   8,B   2,B  11)    -35.0152         0.010000   
    119. D(B   0,B   8,B   2,B   5)     69.3323         0.010000   
    120. D(B   3,B   8,B   2,B  11)   -110.1580         0.010000   
    121. D(B   3,B   8,B   2,B   5)     -5.8105         0.010000   
    122. D(B   2,B   8,B   0,B  10)    169.7140         0.010000   
    123. D(B   2,B   8,B   0,B   7)    148.4206         0.010000   
    124. D(B   2,B   8,B   0,B  11)     35.3584         0.010000   
    125. D(B   5,B   8,B   2,B  11)   -104.3474         0.010000   
    126. D(B   3,B   8,B   0,B   4)     19.5388         0.010000   
    127. D(B   3,B   8,B   0,B   9)     -7.7186         0.010000   
    128. D(B   2,B   8,B   5,B   3)   -172.4290         0.010000   
    129. D(B   3,B   8,B   0,B   7)   -121.3787         0.010000   
    130. D(B   3,B   8,B   0,B  11)    125.5592         0.010000   
    131. D(B   3,B   8,B   0,B  10)   -100.0852         0.010000   
    132. D(B   5,B   9,B   0,B  11)    -68.9030         0.010000   
    133. D(B   4,B   9,B   0,B  10)    161.9409         0.010000   
    134. D(B   4,B   9,B   0,B   7)   -147.1400         0.010000   
    135. D(B   4,B   9,B   0,B   8)     95.1493         0.010000   
    136. D(B   5,B   9,B   0,B   8)     53.4671         0.010000   
    137. D(B   4,B   9,B   0,B  11)    -27.2208         0.010000   
    138. D(B   0,B   9,B   5,B   6)    176.6227         0.010000   
    139. D(B   0,B   9,B   5,B   2)     29.5649         0.010000   
    140. D(B   4,B   9,B   5,B   8)    177.6793         0.010000   
    141. D(B   4,B   9,B   5,B   3)    133.6067         0.010000   
    142. D(B   4,B   9,B   5,B   6)     42.8846         0.010000   
    143. D(B   4,B   9,B   5,B   2)   -104.1732         0.010000   
    144. D(B   5,B   9,B   4,B   0)     33.7355         0.064931   
    145. D(B   5,B   9,B   4,B   1)     76.3316         0.064931   
    146. D(B   0,B   9,B   4,B   1)     42.5961         0.064931   
    147. D(B   0,B   9,B   4,B   5)    -33.7355         0.064931   
    148. D(B   0,B   9,B   5,B   3)    -92.6551         0.010000   
    149. D(B   5,B   9,B   0,B   7)    171.1778         0.010000   
    150. D(B   7,B  10,B   0,B   4)    103.0684         0.010000   
    151. D(B   7,B  10,B   0,B   9)     93.9027         0.010000   
    152. D(B   7,B  10,B   0,B   8)   -153.1845         0.010000   
    153. D(B   7,B  10,B   0,B  11)    -75.2793         0.010000   
    154. D(B   1,B  11,B   2,B   8)    138.1080         0.010000   
    155. D(B   0,B  11,B   2,B   8)     43.7853         0.010000   
    156. D(B   0,B  11,B   2,B   5)    -37.4896         0.010000   
    157. D(B   2,B  11,B   1,B   4)    -55.5796         0.010000   
    158. D(B   0,B  11,B   1,B   4)     25.0642         0.010000   
    159. D(B   1,B  11,B   0,B   7)    102.7337         0.010000   
    160. D(B   1,B  11,B   0,B   8)   -143.6792         0.010000   
    161. D(B   2,B  11,B   0,B   4)     77.2775         0.010000   
    162. D(B   2,B  11,B   0,B   9)     88.3538         0.010000   
    163. D(B   2,B  11,B   0,B  10)   -104.0730         0.010000   
    164. D(B   1,B  11,B   2,B   5)     56.8331         0.010000   
    165. D(B   2,B  11,B   0,B   7)   -154.9227         0.010000   
    166. D(B   2,B  11,B   0,B   8)    -41.3357         0.010000   
    -----------------------------------------------------------------

Number of atoms                         .... 12
Number of degrees of freedom            .... 166


         *************************************************************
         *                GEOMETRY OPTIMIZATION CYCLE   1            *
         *************************************************************
---------------------------------
CARTESIAN COORDINATES (ANGSTROEM)
---------------------------------
  B    -0.584990    0.077954    0.838390
  B     2.013562    2.104841    1.540926
  B    -0.265691    1.609692   -1.150034
  B    -0.473672   -1.655859   -1.797567
  B     2.404946   -0.746834    0.436278
  B     0.511851    0.318713   -1.254602
  B     2.083989    0.132754   -2.839410
  B    -1.767884   -0.500715    2.789035
  B    -2.380604   -0.323841   -1.530626
  B     1.474272   -1.494908    0.996201
  B    -2.617602   -1.552329    1.173073
  B    -0.398177    2.030533    0.798335

----------------------------
CARTESIAN COORDINATES (A.U.)
----------------------------
  NO LB    ZA    FRAG    MASS        X           Y           Z
   0 B   5.0000    0    10.810   -1.105470    0.147311    1.584327
   1 B   5.0000    0    10.810    3.805081    3.977573    2.911928
   2 B   5.0000    0    10.810   -0.502084    3.041877   -2.173250
   3 B   5.0000    0    10.810   -0.895110   -3.129120   -3.396908
   4 B   5.0000    0    10.810    4.544689   -1.411313    0.824447
   5 B   5.0000    0    10.810    0.967259    0.602280   -2.370855
   6 B   5.0000    0    10.810    3.938169    0.250868   -5.365707
   7 B   5.0000    0    10.810   -3.340817   -0.946214    5.270513
   8 B   5.0000    0    10.810   -4.498689   -0.611970   -2.892463
   9 B   5.0000    0    10.810    2.785970   -2.824967    1.882547
  10 B   5.0000    0    10.810   -4.946552   -2.933476    2.216786
  11 B   5.0000    0    10.810   -0.752446    3.837150    1.508635

      -----------------------------------------------------------      
     |                   =====================                   |     
     |                           x T B                           |     
     |                   =====================                   |     
     |                         S. Grimme                         |     
     |          Mulliken Center for Theoretical Chemistry        |     
     |                    University of Bonn                     |     
      -----------------------------------------------------------      

   * xtb version 6.6.1 (unknown) compiled by 'builduser@buildhost' on 2023-08-07

   xtb is free software: you can redistribute it and/or modify it under
   the terms of the GNU Lesser General Public License as published by
   the Free Software Foundation, either version 3 of the License, or
   (at your option) any later version.
   
   xtb is distributed in the hope that it will be useful,
   but WITHOUT ANY WARRANTY; without even the implied warranty of
   MERCHANTABILITY or FITNESS FOR A PARTICULAR PURPOSE.  See the
   GNU Lesser General Public License for more details.
   
   Cite this work as:
   * C. Bannwarth, E. Caldeweyher, S. Ehlert, A. Hansen, P. Pracht,
     J. Seibert, S. Spicher, S. Grimme, WIREs Comput. Mol. Sci., 2020, 11,
     e01493. DOI: 10.1002/wcms.1493
   
   for GFN2-xTB:
   * C. Bannwarth, S. Ehlert and S. Grimme., J. Chem. Theory Comput., 2019,
     15, 1652-1671. DOI: 10.1021/acs.jctc.8b01176
   for GFN1-xTB:
   * S. Grimme, C. Bannwarth, P. Shushkov, J. Chem. Theory Comput., 2017,
     13, 1989-2009. DOI: 10.1021/acs.jctc.7b00118
   for GFN0-xTB:
   * P. Pracht, E. Caldeweyher, S. Ehlert, S. Grimme, ChemRxiv, 2019, preprint.
     DOI: 10.26434/chemrxiv.8326202.v1
   for GFN-FF:
   * S. Spicher and S. Grimme, Angew. Chem. Int. Ed., 2020, 59, 15665-15673.
     DOI: 10.1002/anie.202004239
   
   for ALPB and GBSA implicit solvation:
   * S. Ehlert, M. Stahn, S. Spicher, S. Grimme, J. Chem. Theory Comput.,
     2021, 17, 4250-4261. DOI: 10.1021/acs.jctc.1c00471
   
   for DFT-D4:
   * E. Caldeweyher, C. Bannwarth and S. Grimme, J. Chem. Phys., 2017,
     147, 034112. DOI: 10.1063/1.4993215
   * E. Caldeweyher, S. Ehlert, A. Hansen, H. Neugebauer, S. Spicher,
     C. Bannwarth and S. Grimme, J. Chem. Phys., 2019, 150, 154122.
     DOI: 10.1063/1.5090222
   * E. Caldeweyher, J.-M. Mewes, S. Ehlert and S. Grimme, Phys. Chem. Chem. Phys.
     2020, 22, 8499-8512. DOI: 10.1039/D0CP00502A
   
   for sTDA-xTB:
   * S. Grimme and C. Bannwarth, J. Chem. Phys., 2016, 145, 054103.
     DOI: 10.1063/1.4959605
   
   in the mass-spec context:
   * V. Asgeirsson, C. Bauer and S. Grimme, Chem. Sci., 2017, 8, 4879.
     DOI: 10.1039/c7sc00601b
   * J. Koopman and S. Grimme, ACS Omega 2019, 4, 12, 15120-15133.
     DOI: 10.1021/acsomega.9b02011
   
   for metadynamics refer to:
   * S. Grimme, J. Chem. Theory Comput., 2019, 155, 2847-2862
     DOI: 10.1021/acs.jctc.9b00143
   
   for SPH calculations refer to:
   * S. Spicher and S. Grimme, J. Chem. Theory Comput., 2021, 17, 1701-1714
     DOI: 10.1021/acs.jctc.0c01306
   
   with help from (in alphabetical order)
   P. Atkinson, C. Bannwarth, F. Bohle, G. Brandenburg, E. Caldeweyher
   M. Checinski, S. Dohm, S. Ehlert, S. Ehrlich, I. Gerasimov, C. Hölzer
   A. Katbashev, J. Koopman, C. Lavigne, S. Lehtola, F. März, M. Müller,
   F. Musil, H. Neugebauer, J. Pisarek, C. Plett, P. Pracht, F. Pultar,
   J. Seibert, P. Shushkov, S. Spicher, M. Stahn, M. Steiner, T. Strunk,
   J. Stückrath, T. Rose, and J. Unsleber
   
 * started run on 2026/04/17 at 12:14:49.734     

           -------------------------------------------------
          |                Calculation Setup                |
           -------------------------------------------------

          program call               : /usr/bin/xtb random_d1.90_010_m3_XTB.xyz --grad -c 0 -u 2 -P 1 --namespace random_d1.90_010_m3 --input random_d1.90_010_m3_XTB.input.tmp --acc 0.200000
          calculation namespace      : random_d1.90_010_m3
          coordinate file            : random_d1.90_010_m3_XTB.xyz
          omp threads                :                     1

   ID    Z sym.   atoms
    1    5 B      1-12

molecular fragmentation (1/2 indicates fragments):
122222222221
# atoms in fragment 1/2:     2    10
 fragment masses (1/2) :       21.62      108.11
CMA distance (Bohr)    :   3.225
constraining FC (au)   :  0.0500

           -------------------------------------------------
          |                 G F N 2 - x T B                 |
           -------------------------------------------------

        Reference                      10.1021/acs.jctc.8b01176
      * Hamiltonian:
        H0-scaling (s, p, d)           1.850000    2.230000    2.230000
        zeta-weighting                 0.500000
      * Dispersion:
        s8                             2.700000
        a1                             0.520000
        a2                             5.000000
        s9                             5.000000
      * Repulsion:
        kExp                           1.500000    1.000000
        rExp                           1.000000
      * Coulomb:
        alpha                          2.000000
        third order                    shell-resolved
        anisotropic                    true
        a3                             3.000000
        a5                             4.000000
        cn-shift                       1.200000
        cn-exp                         4.000000
        max-rad                        5.000000


          ...................................................
          :                      SETUP                      :
          :.................................................:
          :  # basis functions                  48          :
          :  # atomic orbitals                  48          :
          :  # shells                           24          :
          :  # electrons                        36          :
          :  max. iterations                   250          :
          :  Hamiltonian                  GFN2-xTB          :
          :  restarted?                      false          :
          :  GBSA solvation                  false          :
          :  PC potential                    false          :
          :  electronic temp.          300.0000000     K    :
          :  accuracy                    0.2000000          :
          :  -> integral cutoff          0.3198970E+02      :
          :  -> integral neglect         0.2000000E-08      :
          :  -> SCF convergence          0.2000000E-06 Eh   :
          :  -> wf. convergence          0.2000000E-04 e    :
          :  Broyden damping             0.4000000          :
          ...................................................

 iter      E             dE          RMSdq      gap      omega  full diag
   1    -12.7483842 -0.127484E+02  0.189E+01    0.01       0.0  T
   2      4.5866339  0.173350E+02  0.236E+01    0.20       1.0  T
   3     10.4887020  0.590207E+01  0.271E+01    0.23       1.0  T
   4      0.9235249 -0.956518E+01  0.210E+01    0.10       1.0  T
   5     -7.2139066 -0.813743E+01  0.143E+01    0.11       1.0  T
   6      9.0341364  0.162480E+02  0.218E+01    0.18       1.0  T
   7     -5.2556807 -0.142898E+02  0.148E+01    0.16       1.0  T
   8     -8.0286614 -0.277298E+01  0.142E+01    0.22       1.0  T
   9    -11.2992421 -0.327058E+01  0.990E+00    0.10       1.0  T
  10    -10.2576241  0.104162E+01  0.108E+01    0.15       1.0  T
  11    -11.6854932 -0.142787E+01  0.937E+00    0.11       1.0  T
  12    -11.2815891  0.403904E+00  0.955E+00    0.39       1.0  T
  13    -11.8940247 -0.612436E+00  0.875E+00    0.23       1.0  T
  14    -11.8997395 -0.571482E-02  0.876E+00    0.23       1.0  T
  15    -11.8968129  0.292658E-02  0.873E+00    0.23       1.0  T
  16    -11.9189179 -0.221050E-01  0.860E+00    0.23       1.0  T
  17    -12.0295722 -0.110654E+00  0.790E+00    0.25       1.0  T
  18    -12.3432742 -0.313702E+00  0.658E+00    0.14       1.0  T
  19    -12.4746167 -0.131342E+00  0.596E+00    0.15       1.0  T
  20    -12.5098819 -0.352652E-01  0.577E+00    0.14       1.0  T
  21    -12.5917426 -0.818608E-01  0.547E+00    0.11       1.0  T
  22    -12.6573454 -0.656027E-01  0.520E+00    0.08       1.0  T
  23    -12.7488189 -0.914736E-01  0.485E+00    0.06       1.0  T
  24    -12.7510550 -0.223604E-02  0.487E+00    0.06       1.0  T
  25    -12.7395171  0.115379E-01  0.472E+00    0.05       1.0  T
  26    -12.8153187 -0.758016E-01  0.431E+00    0.03       1.0  T
  27    -12.8589940 -0.436753E-01  0.399E+00    0.04       1.0  T
  28    -12.9214925 -0.624984E-01  0.364E+00    0.05       1.0  T
  29    -12.9207932  0.699299E-03  0.364E+00    0.05       1.0  T
  30    -13.0078772 -0.870840E-01  0.273E+00    0.08       1.0  T
  31    -13.0540268 -0.461496E-01  0.202E+00    0.04       1.0  T
  32    -13.0339307  0.200961E-01  0.213E+00    0.02       1.0  T
  33    -13.0041632  0.297675E-01  0.242E+00    0.01       1.0  T
  34    -13.0143294 -0.101662E-01  0.223E+00    0.03       1.0  T
  35    -13.0320033 -0.176739E-01  0.204E+00    0.02       1.0  T
  36    -13.0597184 -0.277151E-01  0.169E+00    0.01       1.0  T
  37    -13.0606645 -0.946050E-03  0.166E+00    0.01       1.0  T
  38    -13.0705336 -0.986910E-02  0.131E+00    0.01       1.0  T
  39    -13.0651992  0.533442E-02  0.135E+00    0.00       1.0  T
  40    -13.0691372 -0.393809E-02  0.108E+00    0.01       1.0  T
  41    -13.0729993 -0.386203E-02  0.102E+00    0.00       1.0  T
  42    -13.0803931 -0.739387E-02  0.784E-01    0.01       1.0  T
  43    -13.0842732 -0.388008E-02  0.673E-01    0.01       1.0  T
  44    -13.0865973 -0.232406E-02  0.565E-01    0.01       1.0  T
  45    -13.0924223 -0.582501E-02  0.223E-01    0.03       1.0  T
  46    -13.0924184  0.392787E-05  0.213E-01    0.03       1.0  T
  47    -13.0925320 -0.113635E-03  0.165E-01    0.03       1.0  T
  48    -13.0927886 -0.256595E-03  0.109E-01    0.03       1.0  T
  49    -13.0928203 -0.316640E-04  0.980E-02    0.03       1.0  T
  50    -13.0928822 -0.619463E-04  0.715E-02    0.03       1.0  T
  51    -13.0927622  0.120002E-03  0.945E-02    0.03       1.0  T
  52    -13.0927483  0.138713E-04  0.954E-02    0.03       1.0  T
  53    -13.0928118 -0.634704E-04  0.806E-02    0.03       1.0  T
  54    -13.0929190 -0.107173E-03  0.460E-02    0.03       1.0  T
  55    -13.0929394 -0.204573E-04  0.324E-02    0.03       1.0  T
  56    -13.0929483 -0.883775E-05  0.227E-02    0.03       1.3  T
  57    -13.0929514 -0.315124E-05  0.155E-02    0.03       1.9  T
  58    -13.0929540 -0.253787E-05  0.109E-02    0.03       2.6  T
  59    -13.0929546 -0.610444E-06  0.832E-03    0.03       3.5  T
  60    -13.0929552 -0.593778E-06  0.602E-03    0.03       4.8  T
  61    -13.0929553 -0.883210E-07  0.481E-03    0.03       6.0  T
  62    -13.0929555 -0.197340E-06  0.252E-03    0.03      11.5  T
  63    -13.0929555 -0.216849E-07  0.175E-03    0.03      16.5  T
  64    -13.0929555 -0.128596E-07  0.117E-03    0.03      24.6  T
  65    -13.0929555 -0.648153E-08  0.716E-04    0.03      40.3  T
  66    -13.0929555 -0.333388E-08  0.571E-04    0.03      50.6  T
  67    -13.0929555 -0.245985E-08  0.422E-04    0.03      68.4  T
  68    -13.0929555 -0.179759E-08  0.277E-04    0.03     104.1  T
  69    -13.0929555 -0.667560E-09  0.188E-04    0.03     153.2  T
  70    -13.0929555  0.322942E-10  0.164E-04    0.03     175.6  T

   *** convergence criteria satisfied after 70 iterations ***

         #    Occupation            Energy/Eh            Energy/eV
      -------------------------------------------------------------
         1        2.0000           -0.4130160             -11.2387
       ...           ...                  ...                  ...
        13        2.0000           -0.2815418              -7.6611
        14        2.0000           -0.2747472              -7.4763
        15        2.0000           -0.2723650              -7.4114
        16        2.0000           -0.2713346              -7.3834
        17        1.7345           -0.2581678              -7.0251
        18        1.2588           -0.2562162              -6.9720
        19        0.6416           -0.2513648              -6.8400 (HOMO)
        20        0.3608           -0.2502742              -6.8103 (LUMO)
        21        0.0043           -0.2456535              -6.6846
        22        0.0000           -0.2357280              -6.4145
        23                         -0.2304256              -6.2702
        24                         -0.2267615              -6.1705
       ...                                ...                  ...
        48                          1.8251650              49.6653
      -------------------------------------------------------------
                  HL-Gap            0.0010906 Eh            0.0297 eV
             Fermi-level           -0.2540097 Eh           -6.9120 eV

 transition dipole moment (au) for excitation:          18          19
     X       Y       Z   
  -0.7161   0.1037   0.2682  total (au/Debye):    0.772   1.961
 dE (eV)             :    0.132
 oscillator strength :  0.27236E-02

 SCC (total)                   0 d,  0 h,  0 min,  0.089 sec
 SCC setup                      ...        0 min,  0.000 sec (  0.159%)
 Dispersion                     ...        0 min,  0.000 sec (  0.125%)
 classical contributions        ...        0 min,  0.000 sec (  0.047%)
 integral evaluation            ...        0 min,  0.002 sec (  2.698%)
 iterations                     ...        0 min,  0.076 sec ( 85.620%)
 molecular gradient             ...        0 min,  0.006 sec (  6.544%)
 printout                       ...        0 min,  0.004 sec (  4.776%)

         :::::::::::::::::::::::::::::::::::::::::::::::::::::
         ::                     SUMMARY                     ::
         :::::::::::::::::::::::::::::::::::::::::::::::::::::
         :: total energy             -12.973632493466 Eh    ::
         :: gradient norm              0.342745429816 Eh/a0 ::
         :: HOMO-LUMO gap              0.029676583109 eV    ::
         ::.................................................::
         :: SCC energy               -13.092955500409 Eh    ::
         :: -> isotropic ES            0.047543804670 Eh    ::
         :: -> anisotropic ES         -0.000062680972 Eh    ::
         :: -> anisotropic XC         -0.035313729724 Eh    ::
         :: -> dispersion             -0.027957187867 Eh    ::
         :: repulsion energy           0.119085860839 Eh    ::
         :: add. restraining           0.000000000000 Eh    ::
         :: total charge              -0.000000000294 e     ::
         :::::::::::::::::::::::::::::::::::::::::::::::::::::


Property printout bound to 'properties.out'

           -------------------------------------------------
          | TOTAL ENERGY              -12.973632493466 Eh   |
          | GRADIENT NORM               0.342745429816 Eh/α |
          | HOMO-LUMO GAP               0.029676583109 eV   |
           -------------------------------------------------

------------------------------------------------------------------------
 * finished run on 2026/04/17 at 12:14:49.838     
------------------------------------------------------------------------
 total:
 * wall-time:     0 d,  0 h,  0 min,  0.104 sec
 *  cpu-time:     0 d,  0 h,  0 min,  0.100 sec
 * ratio c/w:     0.962 speedup
 SCF:
 * wall-time:     0 d,  0 h,  0 min,  0.089 sec
 *  cpu-time:     0 d,  0 h,  0 min,  0.088 sec
 * ratio c/w:     0.992 speedup


-------------------------   --------------------
FINAL SINGLE POINT ENERGY       -12.973632493470
-------------------------   --------------------


-------------
DIPOLE MOMENT
-------------
                                X             Y             Z
Total Dipole Moment    :     -0.59800      -0.32900       0.15900
                        -----------------------------------------
Magnitude (a.u.)       :      0.70080
Magnitude (Debye)      :      1.78130


------------------
CARTESIAN GRADIENT
------------------

   1   B   :   -0.000684375   -0.021739711   -0.019486077
   2   B   :    0.049819687    0.013051598    0.019332564
   3   B   :    0.018865285   -0.008867357   -0.078947276
   4   B   :    0.035433727   -0.079364253   -0.019533280
   5   B   :   -0.104672529   -0.110468761    0.073720476
   6   B   :   -0.022297461    0.051157628    0.045518247
   7   B   :    0.038974271    0.001409431   -0.045622394
   8   B   :    0.009698982    0.029668898    0.086262337
   9   B   :   -0.064858633    0.043971168   -0.021491973
  10   B   :    0.140818179    0.070401458   -0.067393977
  11   B   :   -0.046054000   -0.060077852   -0.025556324
  12   B   :   -0.055043132    0.070857752    0.053197678

Difference to translation invariance:
           :    0.0000000000    0.0000000000    0.0000000000

Difference to rotation invariance:
           :   -0.0000000172   -0.0000000927   -0.0000000276

Norm of the Cartesian gradient     ...    0.3427454298
RMS gradient                       ...    0.0571242383
MAX gradient                       ...    0.1408181791
------------------------------------------------------------------------------
                         ORCA GEOMETRY RELAXATION STEP
------------------------------------------------------------------------------

Reading the OPT-File                    .... done
Getting information on internals        .... done
Copying old internal coords+grads       .... done
Making the new internal coordinates     .... (2022 redundants) done
Validating the new internal coordinates .... (2022 redundants) done
Calculating the B-matrix                .... done
Calculating the G,G- and P matrices     .... done
Transforming gradient to internals      .... done
Projecting the internal gradient        .... done
Number of atoms                         ....  12
Number of internal coordinates          .... 166
Current Energy                          ....   -12.973632493 Eh
Current gradient norm                   ....     0.342745430 Eh/bohr
Maximum allowed component of the step   ....  0.300
Current trust radius                    ....  0.300
Evaluating the initial hessian          ....  (Almloef) done
Projecting the Hessian                  .... done
Forming the augmented Hessian           .... done
Diagonalizing the augmented Hessian     .... done
Last element of RFO vector              ....  0.762541963
Lowest eigenvalues of augmented Hessian:
 -0.165100725  0.013740874  0.015185798  0.016761493  0.017789880
Length of the computed step             ....  0.848397580
Warning: the length of the step is outside the trust region - taking restricted step instead
The input lambda is                     ....     0.011266
   iter:   5  x=    0.002667  g=39529.287160 f(x)=   147.588894
   iter:  10  x=   -0.103619  g=   70.940376 f(x)=     3.103626
   iter:  15  x=   -0.556355  g=    0.411887 f(x)=     0.027250
   iter:  20  x=   -0.571339  g=    0.272723 f(x)=     0.000000
The output lambda is                    ....    -0.571339 (20 iterations)
The final length of the internal step   ....  0.300000000
Converting the step to Cartesian space:
 Initial RMS(Int)=    0.0232845158
Transforming coordinates:
 Iter   0:  RMS(Cart)=    0.0476765139 RMS(Int)=    0.0232626103
done
Storing new coordinates                 .... done

                                .--------------------.
          ----------------------|Geometry convergence|-------------------------
          Item                value                   Tolerance       Converged
          ---------------------------------------------------------------------
          RMS gradient        0.0174500212            0.0000300000      NO
          MAX gradient        0.1197325047            0.0001000000      NO
          RMS step            0.0232845158            0.0006000000      NO
          MAX step            0.1000205405            0.0010000000      NO
          -------------------------------------------------------------------------
          ........................................................
          Max(Bonds)      0.0529      Max(Angles)    1.53
          Max(Dihed)        1.79      Max(Improp)    0.00
          ---------------------------------------------------------------------

The optimization has not yet converged - more geometry cycles are needed


    ---------------------------------------------------------------------------
                         Redundant Internal Coordinates
                            (Angstroem and degrees)

        Definition                    Value    dE/dq     Step     New-Value
    ----------------------------------------------------------------------------
     1. B(B   4,B   0)                3.1276 -0.006139 -0.0068    3.1208   
     2. B(B   4,B   1)                3.0831  0.018560 -0.0156    3.0675   
     3. B(B   5,B   4)                2.7529  0.020011 -0.0132    2.7397   
     4. B(B   5,B   3)                2.2727  0.035824 -0.0321    2.2406   
     5. B(B   5,B   2)                1.5107  0.005941 -0.0036    1.5071   
     6. B(B   6,B   5)                2.2400  0.059514 -0.0518    2.1883   
     7. B(B   7,B   0)                2.3535  0.041560 -0.0370    2.3166   
     8. B(B   8,B   3)                2.3414  0.056834 -0.0489    2.2925   
     9. B(B   8,B   0)                2.9997  0.030951 -0.0268    2.9729   
    10. B(B   8,B   5)                2.9758  0.011976 -0.0127    2.9631   
    11. B(B   8,B   2)                2.8907  0.008335 -0.0065    2.8842   
    12. B(B   9,B   0)                2.5960  0.032922 -0.0208    2.5752   
    13. B(B   9,B   5)                3.0466 -0.000492 -0.0103    3.0363   
    14. B(B   9,B   4)                1.3188 -0.119733  0.0462    1.3650   
    15. B(B  10,B   0)                2.6270  0.041762 -0.0381    2.5889   
    16. B(B  10,B   7)                2.1070  0.054631 -0.0456    2.0614   
    17. B(B  11,B   1)                2.5246  0.046043 -0.0419    2.4827   
    18. B(B  11,B   0)                1.9619  0.046434 -0.0379    1.9240   
    19. B(B  11,B   2)                1.9977  0.066749 -0.0529    1.9448   
    20. A(B   8,B   0,B   9)          116.21 -0.001148    0.18    116.39   
    21. A(B   7,B   0,B  11)          108.03 -0.004953    0.41    108.44   
    22. A(B   8,B   0,B  10)           63.53  0.013983   -1.32     62.21   
    23. A(B   4,B   0,B  11)           99.72  0.006504   -0.19     99.52   
    24. A(B   4,B   0,B   8)          115.81 -0.005466    0.54    116.35   
    25. A(B   4,B   0,B   7)          121.48 -0.009578    0.55    122.03   
    26. A(B   4,B   0,B  10)          126.33 -0.009766    0.50    126.82   
    27. A(B   7,B   0,B   8)          108.71  0.016978   -1.53    107.18   
    28. A(B  10,B   0,B  11)          133.94  0.003077   -0.29    133.65   
    29. A(B   7,B   0,B   9)          101.50  0.011235   -0.51    100.99   
    30. A(B   4,B   0,B   9)           24.45 -0.022821    1.04     25.49   
    31. A(B   9,B   0,B  11)          121.92 -0.013995    0.72    122.64   
    32. A(B   9,B   0,B  10)          103.30  0.011104   -0.41    102.89   
    33. A(B   8,B   0,B  11)          100.03 -0.004713    0.45    100.48   
    34. A(B   7,B   0,B  10)           49.68  0.004695   -0.36     49.32   
    35. A(B   4,B   1,B  11)           89.35 -0.000177    0.10     89.45   
    36. A(B   5,B   2,B   8)           78.22  0.001070   -0.24     77.98   
    37. A(B   5,B   2,B  11)          106.36 -0.000924    0.02    106.38   
    38. A(B   8,B   2,B  11)          102.76 -0.003434    0.23    102.99   
    39. A(B   5,B   3,B   8)           80.31 -0.014425    1.29     81.60   
    40. A(B   1,B   4,B   9)          106.44  0.008961   -0.66    105.77   
    41. A(B   0,B   4,B   5)           47.12  0.009157   -0.72     46.40   
    42. A(B   0,B   4,B   1)           65.71  0.006060   -0.63     65.08   
    43. A(B   0,B   4,B   9)           54.58  0.006427   -0.26     54.32   
    44. A(B   1,B   4,B   5)           76.98  0.005035   -0.57     76.41   
    45. A(B   5,B   4,B   9)           89.72  0.014549   -0.87     88.84   
    46. A(B   2,B   5,B   6)          118.76 -0.006575    0.53    119.29   
    47. A(B   3,B   5,B   8)           50.86  0.010139   -0.90     49.96   
    48. A(B   4,B   5,B   9)           25.65 -0.022995    1.06     26.71   
    49. A(B   6,B   5,B   8)          126.77  0.000100   -0.03    126.74   
    50. A(B   3,B   5,B   6)           93.62 -0.004619    0.37     93.99   
    51. A(B   3,B   5,B   9)           78.25  0.002906    0.10     78.34   
    52. A(B   6,B   5,B   9)          104.57 -0.005879    0.13    104.70   
    53. A(B   2,B   5,B   9)          128.33  0.007456   -0.51    127.82   
    54. A(B   4,B   5,B   8)          129.93 -0.010914    0.49    130.42   
    55. A(B   3,B   5,B   4)           96.24 -0.014949    0.98     97.22   
    56. A(B   2,B   5,B   3)          122.40  0.008391   -0.65    121.75   
    57. A(B   4,B   5,B   6)           85.40  0.011007   -0.64     84.76   
    58. A(B   2,B   5,B   4)          129.96  0.004811   -0.38    129.58   
    59. A(B   2,B   5,B   8)           71.98 -0.001170    0.20     72.18   
    60. A(B   8,B   5,B   9)          104.30  0.012015   -0.56    103.75   
    61. A(B   0,B   7,B  10)           71.93 -0.004058    0.31     72.23   
    62. A(B   2,B   8,B   5)           29.80  0.000100    0.03     29.83   
    63. A(B   3,B   8,B   5)           48.83  0.004287   -0.39     48.44   
    64. A(B   2,B   8,B   3)           78.44  0.004170   -0.34     78.10   
    65. A(B   0,B   8,B   5)           46.84  0.005937   -0.51     46.33   
    66. A(B   0,B   8,B   2)           50.84  0.008664   -0.73     50.11   
    67. A(B   0,B   8,B   3)           71.26  0.004014   -0.36     70.90   
    68. A(B   0,B   9,B   4)          100.97  0.016394   -0.78    100.19   
    69. A(B   0,B   9,B   5)           48.99  0.008421   -0.67     48.32   
    70. A(B   4,B   9,B   5)           64.63  0.008445   -0.18     64.45   
    71. A(B   0,B  10,B   7)           58.39 -0.000637    0.05     58.45   
    72. A(B   1,B  11,B   2)          103.28 -0.007116    0.68    103.96   
    73. A(B   0,B  11,B   1)           96.56 -0.011666    0.74     97.30   
    74. A(B   0,B  11,B   2)           79.43 -0.003940    0.36     79.79   
    75. D(B   9,B   4,B   0,B  11)    156.80 -0.000443   -0.07    156.73   
    76. D(B   5,B   4,B   0,B  10)    108.73  0.011842   -0.90    107.83   
    77. D(B   9,B   4,B   0,B   8)    -96.99 -0.004033    0.51    -96.48   
    78. D(B   0,B   4,B   1,B  11)    -16.84 -0.001003    0.13    -16.71   
    79. D(B   5,B   4,B   0,B   8)     33.73  0.000392    0.30     34.03   
    80. D(B   5,B   4,B   1,B  11)     31.71  0.007620   -0.49     31.22   
    81. D(B   9,B   4,B   1,B  11)    -54.07 -0.007294    0.45    -53.62   
    82. D(B   9,B   4,B   0,B   7)     38.57  0.005809   -0.74     37.83   
    83. D(B   5,B   4,B   0,B   7)    169.29  0.010234   -0.94    168.34   
    84. D(B   5,B   4,B   0,B  11)    -72.48  0.003982   -0.28    -72.76   
    85. D(B   9,B   4,B   0,B  10)    -21.99  0.007417   -0.69    -22.69   
    86. D(B   3,B   5,B   4,B   9)    -45.49 -0.003931    0.33    -45.16   
    87. D(B   6,B   5,B   4,B   0)   -176.78 -0.002085    0.10   -176.68   
    88. D(B   3,B   5,B   4,B   1)   -152.44 -0.009235    0.76   -151.68   
    89. D(B   2,B   5,B   4,B   9)     97.14 -0.005242    0.15     97.30   
    90. D(B   2,B   5,B   4,B   1)     -9.81 -0.010545    0.58     -9.23   
    91. D(B   6,B   5,B   4,B   9)   -138.64 -0.001543    0.10   -138.54   
    92. D(B   4,B   5,B   3,B   8)    138.03 -0.007374    0.33    138.36   
    93. D(B   3,B   5,B   2,B  11)    106.96  0.002236   -0.26    106.71   
    94. D(B   6,B   5,B   3,B   8)   -136.21  0.002403   -0.23   -136.43   
    95. D(B   9,B   5,B   3,B   8)    119.65  0.007453   -0.29    119.37   
    96. D(B   6,B   5,B   2,B  11)   -137.34 -0.003370    0.21   -137.12   
    97. D(B   6,B   5,B   2,B   8)    122.65 -0.000177    0.03    122.69   
    98. D(B   2,B   5,B   4,B   0)     59.00 -0.005784    0.16     59.16   
    99. D(B   2,B   5,B   3,B   8)     -8.53 -0.005386    0.42     -8.12   
   100. D(B   4,B   5,B   2,B  11)    -27.43  0.011097   -0.55    -27.98   
   101. D(B   4,B   5,B   2,B   8)   -127.44  0.014290   -0.73   -128.17   
   102. D(B   8,B   5,B   2,B  11)    100.01 -0.003193    0.18    100.19   
   103. D(B   6,B   5,B   4,B   1)    114.41 -0.006846    0.53    114.94   
   104. D(B   3,B   5,B   2,B   8)      6.95  0.005429   -0.44      6.51   
   105. D(B  10,B   7,B   0,B  11)    132.91  0.006796   -0.62    132.29   
   106. D(B  10,B   7,B   0,B   4)   -113.04  0.005382   -0.20   -113.24   
   107. D(B  10,B   7,B   0,B   9)    -97.77 -0.005706    0.15    -97.63   
   108. D(B  10,B   7,B   0,B   8)     25.24  0.006846   -0.63     24.60   
   109. D(B   2,B   8,B   5,B   9)    126.16  0.005169   -0.40    125.76   
   110. D(B   2,B   8,B   5,B   4)    127.47  0.002901   -0.22    127.25   
   111. D(B   2,B   8,B   5,B   6)   -112.86  0.009005   -0.81   -113.67   
   112. D(B   3,B   8,B   5,B   9)    -61.41  0.001055   -0.08    -61.48   
   113. D(B   3,B   8,B   5,B   4)    -60.10 -0.001213    0.10    -59.99   
   114. D(B   3,B   8,B   5,B   6)     59.57  0.004891   -0.48     59.08   
   115. D(B   3,B   8,B   5,B   2)    172.43 -0.004114    0.32    172.75   
   116. D(B   0,B   8,B   3,B   5)    -48.48 -0.006008    0.52    -47.96   
   117. D(B   2,B   8,B   3,B   5)      3.83  0.002028   -0.15      3.68   
   118. D(B   0,B   8,B   2,B  11)    -35.02 -0.001290    0.14    -34.87   
   119. D(B   0,B   8,B   2,B   5)     69.33 -0.001516    0.08     69.41   
   120. D(B   3,B   8,B   2,B  11)   -110.16 -0.003219    0.34   -109.82   
   121. D(B   3,B   8,B   2,B   5)     -5.81 -0.003444    0.28     -5.53   
   122. D(B   2,B   8,B   0,B  10)    169.71  0.007560   -0.67    169.05   
   123. D(B   2,B   8,B   0,B   7)    148.42  0.003059   -0.28    148.14   
   124. D(B   2,B   8,B   0,B  11)     35.36  0.004926   -0.42     34.94   
   125. D(B   5,B   8,B   2,B  11)   -104.35  0.000226    0.06   -104.29   
   126. D(B   3,B   8,B   0,B   4)     19.54  0.001103   -0.53     19.00   
   127. D(B   3,B   8,B   0,B   9)     -7.72  0.027502   -1.79     -9.51   
   128. D(B   2,B   8,B   5,B   3)   -172.43  0.004114   -0.32   -172.75   
   129. D(B   3,B   8,B   0,B   7)   -121.38  0.002385   -0.20   -121.57   
   130. D(B   3,B   8,B   0,B  11)    125.56  0.004251   -0.34    125.22   
   131. D(B   3,B   8,B   0,B  10)   -100.09  0.006885   -0.58   -100.67   
   132. D(B   5,B   9,B   0,B  11)    -68.90  0.003362   -0.34    -69.25   
   133. D(B   4,B   9,B   0,B  10)    161.94  0.002791   -0.41    161.53   
   134. D(B   4,B   9,B   0,B   7)   -147.14  0.009970   -0.88   -148.02   
   135. D(B   4,B   9,B   0,B   8)     95.15 -0.017578    1.24     96.39   
   136. D(B   5,B   9,B   0,B   8)     53.47 -0.018741    1.23     54.70   
   137. D(B   4,B   9,B   0,B  11)    -27.22  0.004525   -0.34    -27.56   
   138. D(B   0,B   9,B   5,B   6)    176.62  0.003917   -0.17    176.46   
   139. D(B   0,B   9,B   5,B   2)     29.56  0.016123   -0.68     28.89   
   140. D(B   4,B   9,B   5,B   8)    177.68  0.001709   -0.21    177.46   
   141. D(B   4,B   9,B   5,B   3)    133.61 -0.005138    0.47    134.08   
   142. D(B   4,B   9,B   5,B   6)     42.88 -0.002224    0.09     42.97   
   143. D(B   4,B   9,B   5,B   2)   -104.17  0.009982   -0.42   -104.59   
   144. D(B   5,B   9,B   4,B   0)     33.74  0.003088   -0.33     33.41   
   145. D(B   5,B   9,B   4,B   1)     76.33  0.009010   -0.81     75.52   
   146. D(B   0,B   9,B   4,B   1)     42.60  0.005922   -0.49     42.11   
   147. D(B   0,B   9,B   4,B   5)    -33.74 -0.003088    0.33    -33.41   
   148. D(B   0,B   9,B   5,B   3)    -92.66  0.001003    0.22    -92.44   
   149. D(B   5,B   9,B   0,B   7)    171.18  0.008807   -0.89    170.29   
   150. D(B   7,B  10,B   0,B   4)    103.07 -0.004190    0.23    103.30   
   151. D(B   7,B  10,B   0,B   9)     93.90  0.006446   -0.40     93.50   
   152. D(B   7,B  10,B   0,B   8)   -153.18  0.000917   -0.08   -153.27   
   153. D(B   7,B  10,B   0,B  11)    -75.28  0.006625   -0.62    -75.90   
   154. D(B   1,B  11,B   2,B   8)    138.11 -0.009358    0.47    138.58   
   155. D(B   0,B  11,B   2,B   8)     43.79  0.002463   -0.26     43.53   
   156. D(B   0,B  11,B   2,B   5)    -37.49  0.002401   -0.07    -37.56   
   157. D(B   2,B  11,B   1,B   4)    -55.58  0.003040   -0.42    -56.00   
   158. D(B   0,B  11,B   1,B   4)     25.06 -0.004142    0.17     25.23   
   159. D(B   1,B  11,B   0,B   7)    102.73 -0.008164    0.64    103.38   
   160. D(B   1,B  11,B   0,B   8)   -143.68  0.006877   -0.72   -144.40   
   161. D(B   2,B  11,B   0,B   4)     77.28 -0.003981    0.52     77.80   
   162. D(B   2,B  11,B   0,B   9)     88.35 -0.015309    1.09     89.44   
   163. D(B   2,B  11,B   0,B  10)   -104.07 -0.013015    1.23   -102.85   
   164. D(B   1,B  11,B   2,B   5)     56.83 -0.009420    0.66     57.49   
   165. D(B   2,B  11,B   0,B   7)   -154.92 -0.013791    1.24   -153.69   
   166. D(B   2,B  11,B   0,B   8)    -41.34  0.001250   -0.12    -41.46   
    ----------------------------------------------------------------------------

Geometry step timings:
Preparation and reading OPT file:      0.000 s ( 0.678 %)
Internal coordinates            :      0.000 s ( 0.509 %)
B/P matrices and projection     :      0.002 s (23.514 %)
Hessian update/contruction      :      0.002 s (15.261 %)
Making the step                 :      0.005 s (44.974 %)
Converting the step to Cartesian:      0.000 s ( 2.214 %)
Storing new data                :      0.000 s ( 0.471 %)
Checking convergence            :      0.000 s ( 0.556 %)
Final printing                  :      0.001 s (11.804 %)
Total time                      :      0.011 s

Time for energy+gradient        :      0.118 s
Time for complete geometry iter :      0.130 s

         *************************************************************
         *                GEOMETRY OPTIMIZATION CYCLE   2            *
         *************************************************************
---------------------------------
CARTESIAN COORDINATES (ANGSTROEM)
---------------------------------
  B    -0.566125    0.080922    0.823988
  B     1.986697    2.101817    1.516222
  B    -0.268449    1.598035   -1.117337
  B    -0.488850   -1.622526   -1.769121
  B     2.420346   -0.732082    0.425156
  B     0.508264    0.312059   -1.236110
  B     2.040781    0.126137   -2.787031
  B    -1.754466   -0.500998    2.725466
  B    -2.369926   -0.339635   -1.501454
  B     1.455452   -1.504255    1.004841
  B    -2.580826   -1.515368    1.132489
  B    -0.382897    1.995894    0.782891

----------------------------
CARTESIAN COORDINATES (A.U.)
----------------------------
  NO LB    ZA    FRAG    MASS        X           Y           Z
   0 B   5.0000    0    10.810   -1.069822    0.152920    1.557112
   1 B   5.0000    0    10.810    3.754313    3.971859    2.865243
   2 B   5.0000    0    10.810   -0.507296    3.019848   -2.111461
   3 B   5.0000    0    10.810   -0.923793   -3.066129   -3.343153
   4 B   5.0000    0    10.810    4.573791   -1.383434    0.803428
   5 B   5.0000    0    10.810    0.960480    0.589706   -2.335910
   6 B   5.0000    0    10.810    3.856517    0.238364   -5.266724
   7 B   5.0000    0    10.810   -3.315461   -0.946749    5.150385
   8 B   5.0000    0    10.810   -4.478511   -0.641818   -2.837337
   9 B   5.0000    0    10.810    2.750405   -2.842631    1.898875
  10 B   5.0000    0    10.810   -4.877054   -2.863630    2.140094
  11 B   5.0000    0    10.810   -0.723570    3.771693    1.479449

      -----------------------------------------------------------      
     |                   =====================                   |     
     |                           x T B                           |     
     |                   =====================                   |     
     |                         S. Grimme                         |     
     |          Mulliken Center for Theoretical Chemistry        |     
     |                    University of Bonn                     |     
      -----------------------------------------------------------      

   * xtb version 6.6.1 (unknown) compiled by 'builduser@buildhost' on 2023-08-07

   xtb is free software: you can redistribute it and/or modify it under
   the terms of the GNU Lesser General Public License as published by
   the Free Software Foundation, either version 3 of the License, or
   (at your option) any later version.
   
   xtb is distributed in the hope that it will be useful,
   but WITHOUT ANY WARRANTY; without even the implied warranty of
   MERCHANTABILITY or FITNESS FOR A PARTICULAR PURPOSE.  See the
   GNU Lesser General Public License for more details.
   
   Cite this work as:
   * C. Bannwarth, E. Caldeweyher, S. Ehlert, A. Hansen, P. Pracht,
     J. Seibert, S. Spicher, S. Grimme, WIREs Comput. Mol. Sci., 2020, 11,
     e01493. DOI: 10.1002/wcms.1493
   
   for GFN2-xTB:
   * C. Bannwarth, S. Ehlert and S. Grimme., J. Chem. Theory Comput., 2019,
     15, 1652-1671. DOI: 10.1021/acs.jctc.8b01176
   for GFN1-xTB:
   * S. Grimme, C. Bannwarth, P. Shushkov, J. Chem. Theory Comput., 2017,
     13, 1989-2009. DOI: 10.1021/acs.jctc.7b00118
   for GFN0-xTB:
   * P. Pracht, E. Caldeweyher, S. Ehlert, S. Grimme, ChemRxiv, 2019, preprint.
     DOI: 10.26434/chemrxiv.8326202.v1
   for GFN-FF:
   * S. Spicher and S. Grimme, Angew. Chem. Int. Ed., 2020, 59, 15665-15673.
     DOI: 10.1002/anie.202004239
   
   for ALPB and GBSA implicit solvation:
   * S. Ehlert, M. Stahn, S. Spicher, S. Grimme, J. Chem. Theory Comput.,
     2021, 17, 4250-4261. DOI: 10.1021/acs.jctc.1c00471
   
   for DFT-D4:
   * E. Caldeweyher, C. Bannwarth and S. Grimme, J. Chem. Phys., 2017,
     147, 034112. DOI: 10.1063/1.4993215
   * E. Caldeweyher, S. Ehlert, A. Hansen, H. Neugebauer, S. Spicher,
     C. Bannwarth and S. Grimme, J. Chem. Phys., 2019, 150, 154122.
     DOI: 10.1063/1.5090222
   * E. Caldeweyher, J.-M. Mewes, S. Ehlert and S. Grimme, Phys. Chem. Chem. Phys.
     2020, 22, 8499-8512. DOI: 10.1039/D0CP00502A
   
   for sTDA-xTB:
   * S. Grimme and C. Bannwarth, J. Chem. Phys., 2016, 145, 054103.
     DOI: 10.1063/1.4959605
   
   in the mass-spec context:
   * V. Asgeirsson, C. Bauer and S. Grimme, Chem. Sci., 2017, 8, 4879.
     DOI: 10.1039/c7sc00601b
   * J. Koopman and S. Grimme, ACS Omega 2019, 4, 12, 15120-15133.
     DOI: 10.1021/acsomega.9b02011
   
   for metadynamics refer to:
   * S. Grimme, J. Chem. Theory Comput., 2019, 155, 2847-2862
     DOI: 10.1021/acs.jctc.9b00143
   
   for SPH calculations refer to:
   * S. Spicher and S. Grimme, J. Chem. Theory Comput., 2021, 17, 1701-1714
     DOI: 10.1021/acs.jctc.0c01306
   
   with help from (in alphabetical order)
   P. Atkinson, C. Bannwarth, F. Bohle, G. Brandenburg, E. Caldeweyher
   M. Checinski, S. Dohm, S. Ehlert, S. Ehrlich, I. Gerasimov, C. Hölzer
   A. Katbashev, J. Koopman, C. Lavigne, S. Lehtola, F. März, M. Müller,
   F. Musil, H. Neugebauer, J. Pisarek, C. Plett, P. Pracht, F. Pultar,
   J. Seibert, P. Shushkov, S. Spicher, M. Stahn, M. Steiner, T. Strunk,
   J. Stückrath, T. Rose, and J. Unsleber
   
 * started run on 2026/04/17 at 12:14:49.861     

           -------------------------------------------------
          |                Calculation Setup                |
           -------------------------------------------------

          program call               : /usr/bin/xtb random_d1.90_010_m3_XTB.xyz --grad -c 0 -u 2 -P 1 --namespace random_d1.90_010_m3 --input random_d1.90_010_m3_XTB.input.tmp --acc 0.200000
          calculation namespace      : random_d1.90_010_m3
          coordinate file            : random_d1.90_010_m3_XTB.xyz
          omp threads                :                     1

   ID    Z sym.   atoms
    1    5 B      1-12

molecular fragmentation (1/2 indicates fragments):
122222222221
# atoms in fragment 1/2:     2    10
 fragment masses (1/2) :       21.62      108.11
CMA distance (Bohr)    :   3.166
constraining FC (au)   :  0.0500

           -------------------------------------------------
          |                 G F N 2 - x T B                 |
           -------------------------------------------------

        Reference                      10.1021/acs.jctc.8b01176
      * Hamiltonian:
        H0-scaling (s, p, d)           1.850000    2.230000    2.230000
        zeta-weighting                 0.500000
      * Dispersion:
        s8                             2.700000
        a1                             0.520000
        a2                             5.000000
        s9                             5.000000
      * Repulsion:
        kExp                           1.500000    1.000000
        rExp                           1.000000
      * Coulomb:
        alpha                          2.000000
        third order                    shell-resolved
        anisotropic                    true
        a3                             3.000000
        a5                             4.000000
        cn-shift                       1.200000
        cn-exp                         4.000000
        max-rad                        5.000000

q/qsh data taken from xtbrestart
CAMM data taken from xtbrestart

          ...................................................
          :                      SETUP                      :
          :.................................................:
          :  # basis functions                  48          :
          :  # atomic orbitals                  48          :
          :  # shells                           24          :
          :  # electrons                        36          :
          :  max. iterations                   250          :
          :  Hamiltonian                  GFN2-xTB          :
          :  restarted?                       true          :
          :  GBSA solvation                  false          :
          :  PC potential                    false          :
          :  electronic temp.          300.0000000     K    :
          :  accuracy                    0.2000000          :
          :  -> integral cutoff          0.3198970E+02      :
          :  -> integral neglect         0.2000000E-08      :
          :  -> SCF convergence          0.2000000E-06 Eh   :
          :  -> wf. convergence          0.2000000E-04 e    :
          :  Broyden damping             0.4000000          :
          ...................................................

 iter      E             dE          RMSdq      gap      omega  full diag
   1    -13.1189089 -0.131189E+02  0.105E+00    0.02       0.0  T
   2    -12.4777147  0.641194E+00  0.480E+00    0.12       1.0  T
   3    -13.0796094 -0.601895E+00  0.156E+00    0.05       1.0  T
   4    -12.9799066  0.997028E-01  0.246E+00    0.12       1.0  T
   5    -12.9963955 -0.164889E-01  0.224E+00    0.01       1.0  T
   6    -12.9914821  0.491338E-02  0.247E+00    0.04       1.0  T
   7    -13.0937967 -0.102315E+00  0.121E+00    0.05       1.0  T
   8    -13.0547778  0.390190E-01  0.180E+00    0.09       1.0  T
   9    -13.0719528 -0.171750E-01  0.152E+00    0.08       1.0  T
  10    -13.1112097 -0.392569E-01  0.831E-01    0.06       1.0  T
  11    -13.1194020 -0.819231E-02  0.688E-01    0.05       1.0  T
  12    -13.1182396  0.116246E-02  0.638E-01    0.06       1.0  T
  13    -13.1267028 -0.846324E-02  0.328E-01    0.05       1.0  T
  14    -13.1257021  0.100073E-02  0.362E-01    0.05       1.0  T
  15    -13.1269127 -0.121060E-02  0.303E-01    0.05       1.0  T
  16    -13.1268957  0.170378E-04  0.291E-01    0.05       1.0  T
  17    -13.1285550 -0.165932E-02  0.142E-01    0.04       1.0  T
  18    -13.1288607 -0.305677E-03  0.812E-02    0.03       1.0  T
  19    -13.1288867 -0.260160E-04  0.773E-02    0.03       1.0  T
  20    -13.1288971 -0.104022E-04  0.746E-02    0.03       1.0  T
  21    -13.1289383 -0.412703E-04  0.548E-02    0.03       1.0  T
  22    -13.1289904 -0.520974E-04  0.154E-02    0.04       1.9  T
  23    -13.1289888  0.162599E-05  0.145E-02    0.04       2.0  T
  24    -13.1289911 -0.227864E-05  0.897E-03    0.04       3.2  T
  25    -13.1289915 -0.418291E-06  0.638E-03    0.04       4.5  T
  26    -13.1289917 -0.177126E-06  0.501E-03    0.04       5.8  T
  27    -13.1289920 -0.323680E-06  0.250E-03    0.04      11.5  T
  28    -13.1289921 -0.800732E-07  0.141E-03    0.04      20.5  T
  29    -13.1289921 -0.250532E-07  0.641E-04    0.04      45.0  T
  30    -13.1289921 -0.426984E-08  0.216E-04    0.04     133.9  T
  31    -13.1289921 -0.156133E-09  0.118E-04    0.04     245.1  T
  32    -13.1289921 -0.689777E-10  0.681E-05    0.04     423.7  T

   *** convergence criteria satisfied after 32 iterations ***

         #    Occupation            Energy/Eh            Energy/eV
      -------------------------------------------------------------
         1        2.0000           -0.4142681             -11.2728
       ...           ...                  ...                  ...
        13        2.0000           -0.2793059              -7.6003
        14        2.0000           -0.2735483              -7.4436
        15        2.0000           -0.2698768              -7.3437
        16        2.0000           -0.2694282              -7.3315
        17        1.7644           -0.2568762              -6.9900
        18        1.2319           -0.2546301              -6.9288
        19        0.6648           -0.2493824              -6.7860 (HOMO)
        20        0.3289           -0.2480582              -6.7500 (LUMO)
        21        0.0100           -0.2443744              -6.6498
        22                         -0.2330645              -6.3420
        23                         -0.2268127              -6.1719
        24                         -0.2240211              -6.0959
       ...                                ...                  ...
        48                          1.4949532              40.6797
      -------------------------------------------------------------
                  HL-Gap            0.0013242 Eh            0.0360 eV
             Fermi-level           -0.2522471 Eh           -6.8640 eV

 transition dipole moment (au) for excitation:          18          19
     X       Y       Z   
  -0.2451   0.1799  -0.0025  total (au/Debye):    0.304   0.773
 dE (eV)             :    0.143
 oscillator strength :  0.45739E-03

 SCC (total)                   0 d,  0 h,  0 min,  0.042 sec
 SCC setup                      ...        0 min,  0.000 sec (  0.345%)
 Dispersion                     ...        0 min,  0.000 sec (  0.216%)
 classical contributions        ...        0 min,  0.000 sec (  0.079%)
 integral evaluation            ...        0 min,  0.003 sec (  5.941%)
 iterations                     ...        0 min,  0.032 sec ( 75.377%)
 molecular gradient             ...        0 min,  0.005 sec ( 11.418%)
 printout                       ...        0 min,  0.003 sec (  6.576%)

         :::::::::::::::::::::::::::::::::::::::::::::::::::::
         ::                     SUMMARY                     ::
         :::::::::::::::::::::::::::::::::::::::::::::::::::::
         :: total energy             -13.033871348223 Eh    ::
         :: gradient norm              0.277792823423 Eh/a0 ::
         :: HOMO-LUMO gap              0.036033777525 eV    ::
         ::.................................................::
         :: SCC energy               -13.128992123881 Eh    ::
         :: -> isotropic ES            0.047990320421 Eh    ::
         :: -> anisotropic ES         -0.000096664104 Eh    ::
         :: -> anisotropic XC         -0.035036675348 Eh    ::
         :: -> dispersion             -0.027002615465 Eh    ::
         :: repulsion energy           0.094908985064 Eh    ::
         :: add. restraining           0.000000000000 Eh    ::
         :: total charge              -0.000000000000 e     ::
         :::::::::::::::::::::::::::::::::::::::::::::::::::::


Property printout bound to 'properties.out'

           -------------------------------------------------
          | TOTAL ENERGY              -13.033871348223 Eh   |
          | GRADIENT NORM               0.277792823423 Eh/α |
          | HOMO-LUMO GAP               0.036033777525 eV   |
           -------------------------------------------------

------------------------------------------------------------------------
 * finished run on 2026/04/17 at 12:14:49.915     
------------------------------------------------------------------------
 total:
 * wall-time:     0 d,  0 h,  0 min,  0.053 sec
 *  cpu-time:     0 d,  0 h,  0 min,  0.053 sec
 * ratio c/w:     1.000 speedup
 SCF:
 * wall-time:     0 d,  0 h,  0 min,  0.042 sec
 *  cpu-time:     0 d,  0 h,  0 min,  0.042 sec
 * ratio c/w:     1.000 speedup


-------------------------   --------------------
FINAL SINGLE POINT ENERGY       -13.033871348220
-------------------------   --------------------


-------------
DIPOLE MOMENT
-------------
                                X             Y             Z
Total Dipole Moment    :     -0.67300      -0.43200       0.18700
                        -----------------------------------------
Magnitude (a.u.)       :      0.82129
Magnitude (Debye)      :      2.08756


------------------
CARTESIAN GRADIENT
------------------

   1   B   :   -0.000465036   -0.018731842   -0.020816407
   2   B   :    0.050396656    0.014362565    0.019654295
   3   B   :    0.020798054   -0.012601291   -0.080481731
   4   B   :    0.037858080   -0.079609328   -0.019588167
   5   B   :   -0.044523973   -0.062909639    0.037815868
   6   B   :   -0.025599805    0.054730156    0.046876019
   7   B   :    0.038676251    0.001631437   -0.046528703
   8   B   :    0.009959661    0.029987800    0.088476904
   9   B   :   -0.065724202    0.047483054   -0.025168871
  10   B   :    0.081350598    0.020882645   -0.030539104
  11   B   :   -0.046677570   -0.062452084   -0.023107084
  12   B   :   -0.056048715    0.067226527    0.053406980

Difference to translation invariance:
[...]
Actually observed energy change         ....    -0.000177810
Ratio of predicted to observed change   ....     1.351588831
New trust radius                        ....     0.700000000

                                .--------------------.
          ----------------------|Geometry convergence|-------------------------
          Item                value                   Tolerance       Converged
          ---------------------------------------------------------------------
          Energy change      -0.0001778104            0.0000010000      NO
          RMS gradient        0.0003882216            0.0000300000      NO
          MAX gradient        0.0015436162            0.0001000000      NO
          RMS step            0.0142568729            0.0006000000      NO
          MAX step            0.0769111404            0.0010000000      NO
          -------------------------------------------------------------------------
          ........................................................
          Max(Bonds)      0.0134      Max(Angles)    1.11
          Max(Dihed)        4.41      Max(Improp)    0.00
          ---------------------------------------------------------------------

The optimization has not yet converged - more geometry cycles are needed


    ---------------------------------------------------------------------------
                         Redundant Internal Coordinates
                            (Angstroem and degrees)

        Definition                    Value    dE/dq     Step     New-Value
    ----------------------------------------------------------------------------
     1. B(B   4,B   0)                3.2088  0.000312  0.0013    3.2101   
     2. B(B   4,B   1)                1.5173 -0.000414 -0.0010    1.5163   
     3. B(B   5,B   4)                2.9002 -0.000675  0.0031    2.9032   
     4. B(B   5,B   3)                1.5994  0.000093  0.0035    1.6029   
     5. B(B   5,B   2)                1.7441 -0.000183 -0.0063    1.7378   
     6. B(B   6,B   5)                1.5301  0.001362  0.0004    1.5304   
     7. B(B   7,B   0)                1.5641 -0.000050 -0.0002    1.5639   
     8. B(B   8,B   3)                1.5505 -0.000271  0.0007    1.5512   
     9. B(B   8,B   0)                2.9322  0.000082 -0.0044    2.9278   
    10. B(B   8,B   5)                3.1072  0.000341  0.0049    3.1121   
    11. B(B   8,B   2)                2.8608 -0.000101 -0.0038    2.8570   
    12. B(B   9,B   0)                1.5618  0.000122 -0.0017    1.5600   
    13. B(B   9,B   5)                2.2118 -0.001081  0.0119    2.2238   
    14. B(B   9,B   4)                1.7227  0.000472  0.0043    1.7270   
    15. B(B  10,B   0)                2.8961  0.000519 -0.0032    2.8929   
    16. B(B  10,B   7)                1.5038  0.000804  0.0010    1.5048   
    17. B(B  11,B   1)                1.5317  0.000268 -0.0028    1.5290   
    18. B(B  11,B   0)                2.0575 -0.000087  0.0134    2.0709   
    19. B(B  11,B   2)                1.5561 -0.000369 -0.0013    1.5548   
    20. A(B   8,B   0,B   9)          128.30  0.000064   -0.21    128.09   
    21. A(B   7,B   0,B  11)          136.76 -0.000075   -0.17    136.59   
    22. A(B   8,B   0,B  10)           29.93 -0.000104    0.13     30.06   
    23. A(B   4,B   0,B  11)           49.17  0.000035   -0.13     49.05   
    24. A(B   4,B   0,B   8)          127.58  0.000031   -0.19    127.39   
    25. A(B   4,B   0,B   7)          172.65  0.000073    0.13    172.78   
    26. A(B   4,B   0,B  10)          156.65 -0.000087    0.15    156.80   
    27. A(B   7,B   0,B   8)           48.77  0.000041    0.14     48.92   
    28. A(B  10,B   0,B  11)          130.95 -0.000066   -0.40    130.56   
    29. A(B   7,B   0,B   9)          160.87 -0.000161    0.03    160.90   
    30. A(B   4,B   0,B   9)           12.95  0.000226    0.07     13.03   
    31. A(B   9,B   0,B  11)           62.06  0.000258   -0.07     61.99   
    32. A(B   9,B   0,B  10)          152.66 -0.000166    0.05    152.70   
    33. A(B   8,B   0,B  11)          112.31 -0.000073   -0.48    111.83   
    34. A(B   7,B   0,B  10)           18.87  0.000150   -0.05     18.82   
    35. A(B   4,B   1,B  11)          105.58  0.000282    0.04    105.62   
    36. A(B   5,B   2,B   8)           80.94  0.000167    0.38     81.32   
    37. A(B   5,B   2,B  11)          118.49 -0.000153    0.65    119.14   
    38. A(B   8,B   2,B  11)          139.85  0.000192   -0.14    139.71   
    39. A(B   5,B   3,B   8)          161.12  0.001058    0.19    161.31   
    40. A(B   1,B   4,B   9)           74.81  0.000067   -0.01     74.80   
    41. A(B   0,B   4,B   5)           48.69 -0.000183    0.34     49.03   
    42. A(B   0,B   4,B   1)           65.81 -0.000072   -0.05     65.76   
    43. A(B   0,B   4,B   9)           11.73  0.000182    0.02     11.74   
    44. A(B   1,B   4,B   5)          101.01 -0.000159   -0.08    100.92   
    45. A(B   5,B   4,B   9)           49.52 -0.000155    0.36     49.89   
    46. A(B   2,B   5,B   6)           98.04 -0.000440   -0.81     97.23   
    47. A(B   3,B   5,B   8)            9.29 -0.000531   -0.10      9.20   
    48. A(B   4,B   5,B   9)           36.33  0.000200    0.08     36.41   
    49. A(B   6,B   5,B   8)          150.78 -0.000046   -1.11    149.68   
    50. A(B   3,B   5,B   6)          149.65 -0.000147   -0.69    148.96   
    51. A(B   3,B   5,B   9)           98.90  0.000232   -0.56     98.34   
    52. A(B   6,B   5,B   9)           51.72 -0.000297   -0.38     51.35   
    53. A(B   2,B   5,B   9)           66.03  0.000308   -0.41     65.63   
    54. A(B   4,B   5,B   8)          133.05  0.000325   -0.76    132.29   
    55. A(B   3,B   5,B   4)          130.03  0.000458   -0.50    129.53   
    56. A(B   2,B   5,B   3)           57.57  0.000311    0.10     57.67   
    57. A(B   4,B   5,B   6)           20.21 -0.000653   -0.40     19.81   
    58. A(B   2,B   5,B   4)           78.65  0.000242   -0.26     78.39   
    59. A(B   2,B   5,B   8)           65.40 -0.000109   -0.21     65.18   
    60. A(B   8,B   5,B   9)           99.07  0.000227   -0.79     98.28   
    61. A(B   0,B   7,B  10)          141.47 -0.000199    0.04    141.51   
    62. A(B   2,B   8,B   5)           33.66 -0.000058   -0.17     33.50   
    63. A(B   3,B   8,B   5)            9.59 -0.000527   -0.09      9.49   
    64. A(B   2,B   8,B   3)           25.91  0.000314    0.13     26.04   
    65. A(B   0,B   8,B   5)           49.51 -0.000231    0.35     49.86   
    66. A(B   0,B   8,B   2)           37.92 -0.000108    0.26     38.18   
    67. A(B   0,B   8,B   3)           49.41 -0.000280    0.50     49.90   
    68. A(B   0,B   9,B   4)          155.32 -0.000408   -0.09    155.23   
    69. A(B   0,B   9,B   5)           82.42 -0.000081    0.50     82.92   
    70. A(B   4,B   9,B   5)           94.15 -0.000045   -0.45     93.70   
    71. A(B   0,B  10,B   7)           19.66  0.000049    0.01     19.67   
    72. A(B   1,B  11,B   2)          135.68 -0.000224   -0.29    135.39   
    73. A(B   0,B  11,B   1)          108.77 -0.000045   -0.42    108.35   
    74. A(B   0,B  11,B   2)           60.96 -0.000138    0.06     61.02   
    75. D(B   9,B   4,B   0,B  11)    173.58 -0.000076    0.89    174.47   
    76. D(B   5,B   4,B   0,B  10)      3.14 -0.000168   -0.10      3.05   
    77. D(B   9,B   4,B   0,B   8)    -98.25 -0.000188    0.09    -98.16   
    78. D(B   0,B   4,B   1,B  11)    -37.12  0.000056   -0.53    -37.65   
    79. D(B   5,B   4,B   0,B   8)     -9.29 -0.000226   -0.18     -9.47   
    80. D(B   5,B   4,B   1,B  11)     -2.68 -0.000116   -0.11     -2.79   
    81. D(B   9,B   4,B   1,B  11)    -45.11 -0.000069   -0.49    -45.60   
    82. D(B   9,B   4,B   0,B   7)    -40.57  0.000144   -0.60    -41.17   
    83. D(B   5,B   4,B   0,B   7)     48.39  0.000106   -0.87     47.53   
    84. D(B   5,B   4,B   0,B  11)    -97.46 -0.000113    0.63    -96.84   
    85. D(B   9,B   4,B   0,B  10)    -85.82 -0.000130    0.17    -85.65   
    86. D(B   3,B   5,B   4,B   9)     36.76 -0.000069   -0.21     36.55   
    87. D(B   6,B   5,B   4,B   0)   -147.33 -0.000560    1.15   -146.19   
    88. D(B   3,B   5,B   4,B   1)    -22.12 -0.000232   -0.36    -22.48   
    89. D(B   2,B   5,B   4,B   9)     64.76  0.000278   -0.37     64.40   
    90. D(B   2,B   5,B   4,B   1)      5.89  0.000115   -0.52      5.37   
    91. D(B   6,B   5,B   4,B   9)   -131.84 -0.000281    0.93   -130.91   
    92. D(B   4,B   5,B   3,B   8)   -112.81 -0.000089    4.02   -108.79   
    93. D(B   3,B   5,B   2,B  11)    148.30 -0.000101    0.42    148.72   
    94. D(B   6,B   5,B   3,B   8)   -105.04 -0.000508    4.41   -100.63   
    95. D(B   9,B   5,B   3,B   8)    -91.78 -0.000006   -1.15    -92.93   
    96. D(B   6,B   5,B   2,B  11)    -12.21 -0.000071    1.39    -10.82   
    97. D(B   6,B   5,B   2,B   8)   -154.79 -0.000352    0.95   -153.84   
    98. D(B   2,B   5,B   4,B   0)     49.27 -0.000001   -0.15     49.12   
    99. D(B   2,B   5,B   3,B   8)   -145.86 -0.000417   -0.95   -146.81   
   100. D(B   4,B   5,B   2,B  11)     -6.49 -0.000067    0.86     -5.64   
   101. D(B   4,B   5,B   2,B   8)   -149.07 -0.000348    0.41   -148.66   
   102. D(B   8,B   5,B   2,B  11)    142.58  0.000281    0.44    143.02   
   103. D(B   6,B   5,B   4,B   1)    169.29 -0.000444    0.78    170.06   
   104. D(B   3,B   5,B   2,B   8)      5.72 -0.000382   -0.02      5.70   
   105. D(B  10,B   7,B   0,B  11)     81.20  0.000234   -0.73     80.47   
   106. D(B  10,B   7,B   0,B   4)    -60.49 -0.000061    0.83    -59.66   
   107. D(B  10,B   7,B   0,B   9)    -86.90 -0.000234    0.31    -86.59   
   108. D(B  10,B   7,B   0,B   8)      2.45  0.000234   -0.14      2.31   
   109. D(B   2,B   8,B   5,B   9)     58.30  0.000172   -0.17     58.12   
   110. D(B   2,B   8,B   5,B   4)     43.61 -0.000218   -0.19     43.41   
   111. D(B   2,B   8,B   5,B   6)     59.77 -0.001319   -0.57     59.20   
   112. D(B   3,B   8,B   5,B   9)     89.69 -0.000052   -1.13     88.56   
   113. D(B   3,B   8,B   5,B   4)     75.00 -0.000442    4.02     79.02   
   114. D(B   3,B   8,B   5,B   6)     91.17 -0.001544    3.64     94.81   
   115. D(B   3,B   8,B   5,B   2)     31.40 -0.000225   -0.96     30.44   
   116. D(B   0,B   8,B   3,B   5)     86.48  0.000517    1.21     87.69   
   117. D(B   2,B   8,B   3,B   5)    138.63  0.000971    0.96    139.59   
   118. D(B   0,B   8,B   2,B  11)    -32.85 -0.000358   -0.86    -33.71   
   119. D(B   0,B   8,B   2,B   5)     91.22 -0.000275    0.59     91.81   
   120. D(B   3,B   8,B   2,B  11)   -135.52  0.000756   -1.44   -136.96   
   121. D(B   3,B   8,B   2,B   5)    -11.46  0.000838    0.02    -11.44   
   122. D(B   2,B   8,B   0,B  10)    151.62  0.000174    0.36    151.99   
   123. D(B   2,B   8,B   0,B   7)    150.04  0.000005    0.55    150.59   
   124. D(B   2,B   8,B   0,B  11)     16.61  0.000058    0.24     16.85   
   125. D(B   5,B   8,B   2,B  11)   -124.07 -0.000083   -1.45   -125.52   
   126. D(B   3,B   8,B   0,B   4)     -4.07  0.000834    0.52     -3.55   
   127. D(B   3,B   8,B   0,B   9)    -20.49  0.000538    0.45    -20.05   
   128. D(B   2,B   8,B   5,B   3)    -31.40  0.000225    0.96    -30.44   
   129. D(B   3,B   8,B   0,B   7)   -175.81  0.000777    0.36   -175.45   
   130. D(B   3,B   8,B   0,B  11)     50.76  0.000829    0.05     50.81   
   131. D(B   3,B   8,B   0,B  10)   -174.22  0.000946    0.17   -174.05   
   132. D(B   5,B   9,B   0,B  11)    -88.91  0.000077    0.46    -88.45   
   133. D(B   4,B   9,B   0,B  10)    120.62  0.000185    0.20    120.83   
   134. D(B   4,B   9,B   0,B   7)    165.30  0.000315   -0.11    165.19   
   135. D(B   4,B   9,B   0,B   8)     91.89  0.000007    0.10     91.98   
   136. D(B   5,B   9,B   0,B   8)      8.48  0.000138   -0.16      8.32   
   137. D(B   4,B   9,B   0,B  11)     -5.50 -0.000055    0.71     -4.79   
   138. D(B   0,B   9,B   5,B   6)    174.57 -0.001019   -0.21    174.36   
   139. D(B   0,B   9,B   5,B   2)     51.49 -0.000224    0.02     51.50   
   140. D(B   4,B   9,B   5,B   8)   -161.77  0.000301    0.08   -161.69   
   141. D(B   4,B   9,B   5,B   3)   -152.37 -0.000231   -0.20   -152.57   
   142. D(B   4,B   9,B   5,B   6)     19.14 -0.000622   -0.30     18.84   
   143. D(B   4,B   9,B   5,B   2)   -103.94  0.000173   -0.07   -104.01   
   144. D(B   5,B   9,B   4,B   0)     80.86 -0.000182    0.47     81.33   
   145. D(B   5,B   9,B   4,B   1)    119.46 -0.000197   -0.19    119.27   
   146. D(B   0,B   9,B   4,B   1)     38.60 -0.000015   -0.66     37.94   
   147. D(B   0,B   9,B   4,B   5)    -80.86  0.000182   -0.47    -81.33   
   148. D(B   0,B   9,B   5,B   3)      3.06 -0.000628   -0.11      2.95   
   149. D(B   5,B   9,B   0,B   7)     81.89  0.000446   -0.37     81.52   
   150. D(B   7,B  10,B   0,B   4)    163.69  0.000215    0.07    163.76   
   151. D(B   7,B  10,B   0,B   9)    134.57 -0.000158    0.02    134.58   
   152. D(B   7,B  10,B   0,B   8)   -176.31  0.000368   -0.20   -176.50   
   153. D(B   7,B  10,B   0,B  11)   -116.31  0.000118   -0.47   -116.78   
   154. D(B   1,B  11,B   2,B   8)    120.52  0.000263    0.34    120.86   
   155. D(B   0,B  11,B   2,B   8)     32.91  0.000343    0.70     33.61   
   156. D(B   0,B  11,B   2,B   5)    -78.53  0.000056   -0.82    -79.35   
   157. D(B   2,B  11,B   1,B   4)     -2.26  0.000124    0.74     -1.53   
   158. D(B   0,B  11,B   1,B   4)     65.05 -0.000104    0.43     65.47   
   159. D(B   1,B  11,B   0,B   7)    152.94  0.000128   -0.02    152.92   
   160. D(B   1,B  11,B   0,B   8)   -154.19  0.000135   -0.34   -154.53   
   161. D(B   2,B  11,B   0,B   4)     99.43  0.000000   -0.18     99.25   
   162. D(B   2,B  11,B   0,B   9)    101.06  0.000043   -0.35    100.71   
   163. D(B   2,B  11,B   0,B  10)    -49.52  0.000093   -0.41    -49.93   
   164. D(B   1,B  11,B   2,B   5)      9.08 -0.000024   -1.18      7.89   
   165. D(B   2,B  11,B   0,B   7)    -74.56 -0.000102   -0.13    -74.69   
   166. D(B   2,B  11,B   0,B   8)    -21.68 -0.000095   -0.45    -22.13   
    ----------------------------------------------------------------------------

Geometry step timings:
Preparation and reading OPT file:      0.000 s ( 0.469 %)
Internal coordinates            :      0.000 s ( 0.753 %)
B/P matrices and projection     :      0.002 s (24.553 %)
Hessian update/contruction      :      0.001 s (17.171 %)
Making the step                 :      0.003 s (36.699 %)
Converting the step to Cartesian:      0.000 s ( 2.876 %)
Storing new data                :      0.000 s ( 0.815 %)
Checking convergence            :      0.000 s ( 1.049 %)
Final printing                  :      0.001 s (15.603 %)
Total time                      :      0.008 s

Time for energy+gradient        :      0.059 s
Time for complete geometry iter :      0.069 s




    ----------------------------------------------------------------------------
                                  WARNING !!!
       The optimization did not converge but reached the maximum number of
       optimization cycles.
       Please check your results very carefully.
    ----------------------------------------------------------------------------



--------------------------------
SUGGESTED CITATIONS FOR THIS RUN
--------------------------------

Below you find a list of papers that are relevant to this ORCA run
We neither can nor want to force you to cite these papers, but we appreciate if you do
You receive ORCA, which is the product of decades of hard work by many enthusiastic individuals, for free
The only thing we kindly ask in return is that you cite our papers,
We deeply appreciate it, if you show your appreciation for ORCA by not just citing the generic ORCA reference.

Please note that relegating all ORCA citations to the supporting information does *not* help us.
SI sections are not indexed - citations you put there will not count into any citation statistics
But we need these citations in order to attract the funding resources that allow us to do what we are doing

Therefore, if you are a happy ORCA user, please consider citing a few of the papers listed below in the main body of your paper

In addition to the list printed below, the program has created the file random_d1.90_010_m3.bibtex that contains the list in bibtex format
You can import this file easily into all common literature databanks and citation aid programs

It goes without saying that in many instances, there are alternative algorithms to achieve similar
results as the ones you have gotten from ORCA. It is, of course, also the case that in some instances
ORCA just re-implements algorithms worked out by others. We are fully aware of that and we are also
fully appreciative of our colleagues work. Hence this citation list should not be read as indicating
that the listed papers, which are focused on our own work, are the only ones worth citing. It simply
meant to make it easier for users to cite ORCA specific papers. It is not a substitute for doing your
own literature research and citing the relevant literature in a scientifically appropriate manner.

List of essential papers. We consider these as the minimum necessary citations

  1. Bannwarth, C.; Ehlert, S.; Grimme, S.
     GFN2-xTB—An Accurate and Broadly Parametrized Self-Consistent Tight-Binding Quantum Chemical Method with Multipole Electrostatics and Density-Dependent Dispersion Contributions
     J. Chem. Theory Comput. 2019 15(3), 1652-1671
     doi.org/10.1021/acs.jctc.8b01176
  2. Neese, F.
     Software update: the ORCA program system, version 6.0
     WIRES Comput. Molec. Sci. 2025 15(1), e70019
     doi.org/10.1002/wcms.70019

List of papers to cite with high priority. The work reported in these papers was absolutely
necessary for this run to complete.
Our perspective: the developers of density functionals and basis sets usually get cited in chemistry papers
Good! But without the algorithms to do something with them, the functionals or basis sets would not do anything.
Hence, in our opinion, the algorithm design and method developments papers are equally worthy of getting cited

  1. Bannwarth, C.; Caldeweyher, E.; Ehlert, S.; Hansen, A.; Pracht, P.; Seibert, J.; Spicher, S.; Grimme, S.
     Extended tight-binding quantum chemistry methods
     WIRES Comput. Molec. Sci. 2020 11(2), e1493
     doi.org/10.1002/wcms.1493

List of suggested additional citations. These are papers that are important in the 'surrounding' of 
of this run, or papers that preceded the highly important papers. If you like your results we are grateful for a citation.

  1. Neese, F.
     The ORCA program system
     WIRES Comput. Molec. Sci. 2012 2(1), 73-78
     doi.org/10.1002/wcms.81
  2. Neese, F.
     Software update: the ORCA program system, version 4.0
     WIRES Comput. Molec. Sci. 2018 8(1), 1-6
     doi.org/10.1002/wcms.1327
  3. Neese, F.; Wennmohs, F.; Becker, U.; Riplinger, C.
     The ORCA quantum chemistry program package
     J. Chem. Phys. 2020 152(22), 224108
     doi.org/10.1063/5.0004608
  4. Neese, F.
     Software update: The ORCA program system—Version 5.0
     WIRES Comput. Molec. Sci. 2022 12(1), e1606
     doi.org/10.1002/wcms.1606

List of optional additional citations

  1. Neese, F.
     Approximate second-order SCF convergence for spin unrestricted wavefunctions
     Chem. Phys. Lett. 2000 325(1-3), 93-98
     doi.org/10.1016/s0009-2614(00)00662-x

Timings for individual modules:

Sum of individual times          ...        3.316 sec (=   0.055 min)
Geometry relaxation              ...        0.486 sec (=   0.008 min)  14.6 %
XTB module                       ...        2.831 sec (=   0.047 min)  85.4 %
                             ****ORCA TERMINATED NORMALLY****
TOTAL RUN TIME: 0 days 0 hours 0 minutes 3 seconds 804 msec
