
                                 *****************
                                 * O   R   C   A *
                                 *****************

                                            #,                                       
                                            ###                                      
                                            ####                                     
                                            #####                                    
                                            ######                                   
                                           ########,                                 
                                     ,,################,,,,,                         
                               ,,#################################,,                 
                          ,,##########################################,,             
                       ,#########################################, ''#####,          
                    ,#############################################,,   '####,        
                  ,##################################################,,,,####,       
                ,###########''''           ''''###############################       
              ,#####''   ,,,,##########,,,,          '''####'''          '####       
            ,##' ,,,,###########################,,,                        '##       
           ' ,,###''''                  '''############,,,                           
         ,,##''                                '''############,,,,        ,,,,,,###''
      ,#''                                            '''#######################'''  
     '                                                          ''''####''''         
             ,#######,   #######,   ,#######,      ##                                
            ,#'     '#,  ##    ##  ,#'     '#,    #''#        ,####,    ,#,          
            ##       ##  ##   ,#'  ##            #'  '#       #'       ,# #          
            ##       ##  #######   ##           ,######,      #####,      #          
            '#,     ,#'  ##    ##  '#,     ,#' ,#      #,     #,   #      #          
             '#######'   ##     ##  '#######'  #'      '#     '####' #    #          



                #########################################################
                #                        -***-                          #
                #          Department of theory and spectroscopy        #
                #                                                       #
                #                      Frank Neese                      #
                #                                                       #
                #     Directorship, Architecture, Infrastructure        #
                #                    SHARK, DRIVERS                     #
                #        Core code/Algorithms in most modules           #
                #                                                       #
                #        Max Planck Institute fuer Kohlenforschung      #
                #                Kaiser Wilhelm Platz 1                 #
                #                 D-45470 Muelheim/Ruhr                 #
                #                      Germany                          #
                #                                                       #
                #                  All rights reserved                  #
                #                        -***-                          #
                #########################################################


                         Program Version 6.1.1  -  RELEASE   -
                                (GIT: $487d211c$)
                          ($2025-11-21 10:33:24 +0100$)
                                                                         
                                  - NO-DMRG VERSION -                    
                                                                         


 With contributions from (in alphabetic order):
[Max-Planck-Institut fuer Kohlenforschung]                               
  Daniel Aravena         : Magnetic Suceptibility                        
  Michael Atanasov       : Ab Initio Ligand Field Theory (pilot matlab implementation)
  Alexander A. Auer      : GIAO ZORA, VPT2 properties, NMR spectrum      
  Ute Becker             : All parallelization in ORCA, NUMFREQ, NUMCALC 
  Giovanni Bistoni       : ED, misc. LED, open-shell LED, HFLD           
  Dmytro Bykov           : pre 5.0 version of the SCF Hessian            
  Marcos Casanova-Páez   : Triplet and SCS-CIS(D). UHF-(DLPNO)-IP/EA/STEOM-CCSD. UHF-CVS-IP/STEOM-CCSD   
  Vijay G. Chilkuri      : MRCI spin determinant printing, contributions to CSF-ICE 
  Pauline Colinet        : FMM embedding                                 
  Dipayan Datta          : RHF DLPNO-CCSD density                        
  Achintya Kumar Dutta   : EOM-CC, STEOM-CC                              
  Nicolas Foglia         : Exact transition moments, OPA infrastructure, MCD improvements    
  Dmitry Ganyushin       : Spin-Orbit,Spin-Spin,Magnetic field MRCI      
  Miquel Garcia-Rates    : C-PCM and meta-GGA Hessian, CCSD/C-PCM, Gaussian charge scheme 
  Tiago L. C. Gouveia    : GS-ROHF, GS-ROCIS                             
  Yang Guo               : DLPNO-NEVPT2, F12-NEVPT2, CIM, IAO-localization        
  Andreas Hansen         : Spin unrestricted coupled pair/coupled cluster methods 
  Ingolf Harden          : AUTO-CI MPn and infrastructure                
  Benjamin Helmich-Paris : MC-RPA, TRAH-(SCF,CASSCF), AVAS, COSX integrals, SCF dyn. polar., MC-PDFT, srDFT 
  Lee Huntington         : MR-EOM, pCC                                   
  Robert Izsak           : Overlap fitted RIJCOSX, COSX-SCS-MP3, EOM     
  Riya Kayal             : Wick's Theorem for AUTO-CI, AUTO-CI UHF-CCSDT 
  Emily Kempfer          : AUTO-CI RHF CISDT and CCSDT, approximate NEVPT4
  Christian Kollmar      : KDIIS, OOCD, Brueckner-CCSD(T), CCSD density, CASPT2, CASPT2-K, improved NEVPT2 
  Axel Koslowski         : Symmetry handling                             
  Simone Kossmann        : meta-GGA functionals, TD-DFT gradient, OOMP2, (MP2 Hessian; deprecated post 5.0) 
  Lucas Lang             : DCDCAS, Hyperfine gauge corrections, ICE-SOC+SSC
  Marvin Lechner         : AUTO-CI (C++ implementation), FIC-MRCC        
  Spencer Leger          : CASSCF response                               
  Dagmar Lenk            : GEPOL surface, SMD, ORCA-2-JSON               
  Dimitrios Liakos       : Extrapolation schemes; Compound Job, Property file
  Dimitrios Manganas     : Further ROCIS development; embedding schemes. LFT, Crystal Embedding 
  Dimitrios Pantazis     : SARC Basis sets                               
  Anastasios Papadopoulos: AUTO-CI, single reference methods and gradients 
  Taras Petrenko         : pre 6.0 DFT Hessian and TD-DFT gradient,  ECA, NRVS 
  Petra Pikulova         : Analytic Raman intensities                    
  Peter Pinski           : DLPNO-MP2, DLPNO-MP2 Gradient                 
  Shashank Vittal Rao    : ES-AILFT, MagRelax                            
  Christoph Reimann      : Effective Core Potentials                     
  Marius Retegan         : Local ZFS, SOC                                
  Christoph Riplinger    : Optimizer, TS searches, QM/MM, DLPNO-CCSD(T), (RO)-DLPNO pert. Triples 
  Michael Roemelt        : Original ROCIS implementation, recursive CI coupling coefficients
  Masaaki Saitow         : Open-shell DLPNO-CCSD energy and density      
  Barbara Sandhoefer     : DKH picture change effects                    
  Yorick L. A. Schmerwitz: GMF and freeze-and-release deltaSCF, NEB S-IDPP initial path                    
  Kantharuban Sivalingam : CASSCF convergence/infrastructure, NEVPT2, NEVPT3, NEVPT4(SD), FIC-MRCI and CEPA variants
  Bernardo de Souza      : ESD, SOC TD-DFT                               
  Georgi L. Stoychev     : AutoAux, RI-MP2 NMR, DLPNO-MP2 response, X2C  
  Van Anh Tran           : RI-MP2 g-tensors                              
  Willem Van den Heuvel  : Paramagnetic NMR                              
  Zikuan Wang            : NOTCH, Electric field optimization            
  Frank Wennmohs         : Technical directorship and infrastructure     
  Hang Xu                : AUTO-CI-Response properties                   
                                                                         
[FACCTs GmbH]                                                            
  Markus Bursch, Nicolas Foglia, Miquel Garcia-Rates, Ingolf Harden, Hagen Neugebauer, Anastasios Papadopoulos, 
  Christoph Riplinger, Bernardo de Souza, Georgi L. Stoychev                                                    
                                                                 
  APM, various basis sets, CI-OPT, improved COSX, DLPNO-Multilevel,           
  DOCKER, DRACO, updates on ESD, Fragmentator, GOAT, IRC, LR-CPCM, L-BFGS, MBIS, meta-GGA TD-DFT gradient, ML-optimized integration grids, 
  MM, NACMEs, nearIR, NEB, NEB-TS, NL-DFT gradient (VV10), 2- and 3-layer-ONIOM, interface openCOSMO-RS, QMMM,   
  Crystal-QMMM, RESP, rigid body optimization, SF, symmetry and pop. for TD-DFT, various functionals, SOLVATOR                                   
                                                                         
[Other institutions]                                                     
  V. Asgeirsson          : NEB                                           
  Christoph Bannwarth    : sTDA-DFT, sTD-DFT, PBEh-3c, B97-3c, D3        
  Giovanni Bistoni       : ETS/NOCV, ADLD/ADEX, COVALED                  
  Martin Brehm           : Molecular dynamics                            
  Ronald Cardenas        : ETS/NOCV                                      
  Martina Colucci        : COVALED                                       
  Sebastian Ehlert       : rSCAN, r2SCAN, r2SCAN-3c, D4, dhf basis sets  
  Marvin Friede          : D4 for Fr, Ra, Ac-Lr                          
  Lars Goerigk           : TD-DFT with DH, B97 family of functionals     
  Stefan Grimme          : VdW corrections, initial TS optimization, DFT functionals, gCP, sTDA/sTD-DF 
  Waldemar Hujo          : DFT-NL                                        
  H. Jonsson             : NEB                                           
  Holger Kruse           : gCP                                           
  Marcel Mueller         : wB97X-3c, vDZP basis set                      
  Hagen Neugebauer       : wr2SCAN, Native XTB                           
  Gianluca Regni         : ADLD/ADEX                                     
  Tobias Risthaus        : pre 6.0 range-separated hybrid DFT and stability analysis
  Lukas Wittmann         : regularized MP2, r2SCAN double-hybrids, wr2SCAN        
                                                                         
We gratefully acknowledge several colleagues who have allowed us to      
interface, adapt or use parts of their codes:                            
  Ed Valeev, F. Pavosevic, A. Kumar             : LibInt (2-el integral package), F12 methods 
  Garnet Chan, S. Sharma, J. Yang, R. Olivares  : DMRG                   
  Ulf Ekstrom                                   : XCFun DFT Library      
  Mihaly Kallay                                 : mrcc  (arbitrary order and MRCC methods)
  Frank Weinhold                                : gennbo (NPA and NBO analysis)           
  Simon Mueller                                 : openCOSMO-RS                            
  Christopher J. Cramer and Donald G. Truhlar   : smd solvation model                     
  S Lehtola, MJT Oliveira, MAL Marques          : LibXC Library                           
  Liviu Ungur et al                             : ANISO software                          


 Your calculation uses the libint2 library for the computation of 2-el integrals
 For citations please refer to: http://libint.valeyev.net

 Your ORCA version has been built with support for libXC version: 7.0.0
 For citations please refer to: https://libxc.gitlab.io

 This ORCA versions uses:
   CBLAS   interface :  Fast vector & matrix operations
   LAPACKE interface :  Fast linear algebra routines
   SCALAPACK package :  Parallel linear algebra routines
   Shared memory     :  Shared parallel matrices
   BLAS/LAPACK       :  OpenBLAS 0.3.29  USE64BITINT DYNAMIC_ARCH NO_AFFINITY Zen SINGLE_THREADED
        Core in use  :  Zen
   Copyright (c) 2011-2014, The OpenBLAS Project


  ***********************************
  * Starting time: Fri Apr 17 12:14:37 2026
  * Host name:     vmi3233575
  * Process ID:    337365
  * Working dir.:  /root/orca_b12_vps_pack/jobs/01_xtb/mult_3
  ***********************************

NOTE: MaxCore=500 MB was set to SCF,MP2,MDCI,CIPSI,MRCI,RASCI and CIS
      => If you want to overwrite this, your respective input block should be placed after the MaxCore statement


***************************************
The coordinates will be read from file: ../../../starts/random_d1.70_002.xyz
***************************************


Your calculation utilizes the semiempirical GFN2-xTB method
Please cite in your paper:
Bannwarth, C.; Ehlert S.; Grimme, S. J. Chem. Theory Comput. 2019, 15, 1652.
   

================================================================================

================================================================================
                                        WARNINGS
                       Please study these warnings very carefully!
================================================================================


WARNING: Geometry Optimization
  ===> : Switching off AutoStart
         For restart on a previous wavefunction, please use MOREAD

WARNING: Found dipole moment calculation with XTB calculation
  ===> : Switching off dipole moment calculation

Environment variable XTBEXE for xtb has been set!

================================================================================
                                       INPUT FILE
================================================================================
NAME = random_d1.70_002_m3.inp
|  1> ! GFN2-xTB TightSCF TightOpt
|  2> 
|  3> %pal
|  4>   nprocs 1
|  5> end
|  6> 
|  7> %maxcore 500
|  8> 
|  9> * xyzfile 0 3 ../../../starts/random_d1.70_002.xyz
| 10> 
| 11>                          ****END OF INPUT****
================================================================================

                       *****************************
                       * Geometry Optimization Run *
                       *****************************

Geometry optimization settings:
Update method            Update   .... BFGS
Choice of coordinates    CoordSys .... (2022) Redundant Internals
Initial Hessian          InHess   .... Almloef's Model
Max. no of cycles        MaxIter  .... 50

Convergence Tolerances:
Energy Change            TolE     ....  1.0000e-06 Eh
Max. Gradient            TolMAXG  ....  1.0000e-04 Eh/bohr
RMS Gradient             TolRMSG  ....  3.0000e-05 Eh/bohr
Max. Displacement        TolMAXD  ....  1.0000e-03 bohr
RMS Displacement         TolRMSD  ....  6.0000e-04 bohr
Strict Convergence                .... False

------------------------------------------------------------------------------
                        ORCA OPTIMIZATION COORDINATE SETUP
------------------------------------------------------------------------------

The optimization will be done in redundant internal coordinates (2022)
Making redundant internal coordinates   ...  (2022 redundants) done
Evaluating the initial hessian          ...  (Almloef) done
Evaluating the coordinates              ...  done
Calculating the B-matrix                .... done
Calculating the G-matrix                .... done
The number of degrees of freedom        ....  194

    -----------------------------------------------------------------
                    Redundant Internal Coordinates


    -----------------------------------------------------------------
         Definition                    Initial Value    Approx d2E/dq
    -----------------------------------------------------------------
      1. B(B   2,B   0)                  1.2628         1.337330   
      2. B(B   4,B   2)                  3.0897         0.010000   
      3. B(B   5,B   0)                  1.4862         0.588639   
      4. B(B   6,B   1)                  1.4883         0.584259   
      5. B(B   6,B   4)                  3.0211         0.010000   
      6. B(B   7,B   4)                  2.0382         0.077477   
      7. B(B   7,B   3)                  1.4798         0.602645   
      8. B(B   8,B   2)                  1.8878         0.134640   
      9. B(B   8,B   1)                  2.0594         0.071674   
     10. B(B   8,B   6)                  1.6266         0.351472   
     11. B(B   9,B   8)                  2.4086         0.019876   
     12. B(B   9,B   4)                  1.8769         0.140117   
     13. B(B   9,B   6)                  2.9860         0.010000   
     14. B(B   9,B   2)                  2.5322         0.012620   
     15. B(B  10,B   7)                  1.3194         1.086494   
     16. B(B  10,B   4)                  1.8849         0.136087   
     17. B(B  10,B   3)                  1.4624         0.642391   
     18. B(B  10,B   0)                  2.9957         0.010000   
     19. B(B  10,B   5)                  2.7145         0.010000   
     20. B(B  11,B   9)                  1.2196         1.567397   
     21. B(B  11,B   4)                  2.0865         0.064880   
     22. A(B   2,B   0,B   5)          129.2731         0.512484   
     23. A(B   2,B   0,B  10)           89.1639         0.209715   
     24. A(B   5,B   0,B  10)           64.6337         0.189253   
     25. A(B   6,B   1,B   8)           51.5676         0.307000   
     26. A(B   0,B   2,B   9)          138.4359         0.266470   
     27. A(B   0,B   2,B   4)          102.4406         0.200637   
     28. A(B   0,B   2,B   8)          136.7245         0.392269   
     29. A(B   8,B   2,B   9)           64.1090         0.194549   
     30. A(B   4,B   2,B   9)           37.3709         0.127853   
     31. A(B   4,B   2,B   8)           82.1064         0.155395   
     32. A(B   7,B   3,B  10)           53.2816         0.449640   
     33. A(B   2,B   4,B   7)          101.0653         0.147588   
     34. A(B   9,B   4,B  11)           35.3439         0.243281   
     35. A(B   2,B   4,B  11)           79.5883         0.145282   
     36. A(B   6,B   4,B  11)          106.1207         0.148586   
     37. A(B   6,B   4,B   9)           70.7772         0.159930   
     38. A(B   2,B   4,B   9)           54.9724         0.155997   
     39. A(B   7,B   4,B  10)           39.0586         0.248546   
     40. A(B   6,B   4,B   7)          126.7434         0.151028   
     41. A(B  10,B   4,B  11)          133.1282         0.242265   
     42. A(B   9,B   4,B  10)          130.3200         0.271443   
     43. A(B   7,B   4,B  11)          109.6732         0.223918   
     44. A(B   7,B   4,B   9)          133.5709         0.249603   
     45. A(B   2,B   4,B   6)           49.0908         0.114875   
     46. A(B   2,B   4,B  10)           76.8965         0.155556   
     47. A(B   6,B   4,B  10)           87.8410         0.159463   
     48. A(B   0,B   5,B  10)           85.7140         0.215663   
     49. A(B   4,B   6,B   9)           36.4084         0.117206   
     50. A(B   1,B   6,B   4)          124.8094         0.186990   
     51. A(B   1,B   6,B   8)           82.6481         0.401427   
     52. A(B   4,B   6,B   8)           88.4556         0.176343   
     53. A(B   8,B   6,B   9)           53.6268         0.178931   
     54. A(B   1,B   6,B   9)          120.4527         0.189894   
     55. A(B   4,B   7,B  10)           64.1822         0.344323   
     56. A(B   3,B   7,B  10)           62.6844         0.495191   
     57. A(B   3,B   7,B   4)          121.5058         0.312437   
     58. A(B   1,B   8,B   6)           45.7843         0.283312   
     59. A(B   6,B   8,B   9)           93.4327         0.234353   
     60. A(B   2,B   8,B   9)           71.0521         0.205979   
     61. A(B   1,B   8,B   9)          124.3202         0.190422   
     62. A(B   1,B   8,B   2)           74.4888         0.245380   
     63. A(B   2,B   8,B   6)           92.2247         0.313117   
     64. A(B   2,B   9,B  11)          126.4554         0.272962   
     65. A(B   2,B   9,B   4)           87.6567         0.195505   
     66. A(B   8,B   9,B  11)          168.2150         0.292884   
     67. A(B   4,B   9,B   8)          103.9785         0.207039   
     68. A(B   2,B   9,B   6)           54.0396         0.131353   
     69. A(B   4,B   9,B  11)           81.7518         0.406214   
     70. A(B   6,B   9,B   8)           32.9405         0.135940   
     71. A(B   6,B   9,B  11)          154.5643         0.215144   
     72. A(B   4,B   9,B   6)           72.8144         0.162032   
     73. A(B   2,B   9,B   8)           44.8389         0.157455   
     74. A(B   3,B  10,B   4)          133.6469         0.346516   
     75. A(B   0,B  10,B   5)           29.6523         0.125106   
     76. A(B   0,B  10,B   7)          126.0202         0.204171   
     77. A(B   0,B  10,B   4)           91.4985         0.160968   
     78. A(B   0,B  10,B   3)           92.2351         0.191255   
     79. A(B   5,B  10,B   7)          149.0664         0.234511   
     80. A(B   4,B  10,B   5)          111.9694         0.179927   
     81. A(B   3,B  10,B   5)           92.4056         0.218193   
     82. A(B   4,B  10,B   7)           76.7592         0.379042   
     83. A(B   3,B  10,B   7)           64.0341         0.501106   
     84. A(B   4,B  11,B   9)           62.9043         0.355482   
     85. D(B   8,B   2,B   0,B   5)    -35.9501         0.103490   
     86. D(B   4,B   2,B   0,B   5)     55.7201         0.103490   
     87. D(B   8,B   2,B   0,B  10)    -91.5210         0.103490   
     88. D(B   9,B   2,B   0,B  10)     12.2273         0.103490   
     89. D(B   9,B   2,B   0,B   5)     67.7982         0.103490   
     90. D(B   7,B   4,B   2,B   8)    166.9061         0.010000   
     91. D(B   9,B   4,B   2,B   0)    166.7784         0.010000   
     92. D(B   7,B   4,B   2,B   0)     30.6766         0.010000   
     93. D(B  10,B   4,B   2,B   8)    135.9861         0.010000   
     94. D(B  10,B   4,B   2,B   9)   -167.0219         0.010000   
     95. D(B   7,B   4,B   2,B   9)   -136.1019         0.010000   
     96. D(B   9,B   4,B   2,B   8)    -56.9920         0.010000   
     97. D(B  10,B   4,B   2,B   0)     -0.2435         0.010000   
     98. D(B  10,B   5,B   0,B   2)    -65.8864         0.014678   
     99. D(B   1,B   6,B   4,B  11)     95.7690         0.010000   
    100. D(B   1,B   6,B   4,B   7)    -35.0063         0.010000   
    101. D(B   8,B   6,B   4,B  10)   -118.6977         0.010000   
    102. D(B   9,B   6,B   1,B   8)    -39.6904         0.015883   
    103. D(B   8,B   6,B   4,B   9)     15.6407         0.010000   
    104. D(B   1,B   6,B   4,B   9)     95.5821         0.010000   
    105. D(B   1,B   6,B   4,B   2)     35.7266         0.010000   
    106. D(B   8,B   6,B   4,B   7)   -114.9477         0.010000   
    107. D(B   1,B   6,B   4,B  10)    -38.7563         0.010000   
    108. D(B   4,B   6,B   1,B   8)    -82.9460         0.015883   
    109. D(B   3,B   7,B   4,B  11)   -108.8047         0.010000   
    110. D(B   3,B   7,B   4,B   6)     20.6075         0.010000   
    111. D(B   3,B   7,B   4,B   9)    -77.6208         0.010000   
    112. D(B   3,B   7,B   4,B   2)    -26.0224         0.010000   
    113. D(B   4,B   7,B   3,B  10)    -26.9386         0.015378   
    114. D(B   3,B   7,B   4,B  10)     26.5611         0.010000   
    115. D(B  10,B   7,B   4,B   9)   -104.1819         0.010000   
    116. D(B  10,B   7,B   4,B  11)   -135.3658         0.010000   
    117. D(B   2,B   8,B   6,B   4)     59.6797         0.010000   
    118. D(B   9,B   8,B   6,B   1)   -136.8624         0.010000   
    119. D(B   2,B   8,B   6,B   9)     71.1430         0.010000   
    120. D(B   1,B   8,B   6,B   4)    125.3991         0.010000   
    121. D(B   1,B   8,B   6,B   9)    136.8624         0.010000   
    122. D(B   6,B   8,B   2,B   4)    -58.4095         0.010000   
    123. D(B   6,B   8,B   2,B   9)    -92.8670         0.010000   
    124. D(B   6,B   8,B   2,B   0)     41.3789         0.010000   
    125. D(B   1,B   8,B   2,B   9)   -135.5557         0.010000   
    126. D(B   2,B   8,B   6,B   1)    -65.7194         0.010000   
    127. D(B   1,B   8,B   2,B   0)     -1.3098         0.010000   
    128. D(B   9,B   8,B   1,B   6)     55.7310         0.010000   
    129. D(B   1,B   8,B   2,B   4)   -101.0982         0.010000   
    130. D(B   2,B   8,B   1,B   6)    109.0412         0.010000   
    131. D(B   8,B   9,B   4,B   2)     42.1382         0.010000   
    132. D(B   8,B   9,B   4,B   6)    -10.8106         0.010000   
    133. D(B   8,B   9,B   4,B  11)    169.4997         0.010000   
    134. D(B   8,B   9,B   4,B   7)    112.0596         0.010000   
    135. D(B  11,B   9,B   4,B   2)   -127.3615         0.010000   
    136. D(B  11,B   9,B   4,B   6)    179.6896         0.010000   
    137. D(B  11,B   9,B   4,B  10)   -110.6902         0.010000   
    138. D(B  11,B   9,B   4,B   7)    -57.4401         0.010000   
    139. D(B   8,B   9,B   2,B   4)   -112.5826         0.010000   
    140. D(B   8,B   9,B   2,B   0)   -132.2550         0.010000   
    141. D(B  11,B   9,B   2,B   0)     58.2789         0.010000   
    142. D(B   8,B   9,B   4,B  10)     58.8095         0.010000   
    143. D(B   4,B   9,B   2,B   8)    112.5826         0.010000   
    144. D(B  11,B   9,B   2,B   8)   -169.4661         0.010000   
    145. D(B   4,B   9,B   2,B   0)    -19.6723         0.010000   
    146. D(B   4,B   9,B   6,B   1)   -108.5709         0.010000   
    147. D(B   2,B   9,B   8,B   1)     54.7799         0.010000   
    148. D(B  11,B   9,B   8,B   2)     46.0509         0.010000   
    149. D(B  11,B   9,B   8,B   1)    100.8308         0.010000   
    150. D(B   4,B   9,B   8,B   6)     19.2405         0.010000   
    151. D(B   4,B   9,B   8,B   2)    -71.9355         0.010000   
    152. D(B   4,B   9,B   8,B   1)    -17.1556         0.010000   
    153. D(B   8,B   9,B   6,B   4)    160.4445         0.010000   
    154. D(B   8,B   9,B   6,B   1)     51.8737         0.010000   
    155. D(B  11,B   9,B   6,B   4)     -0.7152         0.010000   
    156. D(B  11,B   9,B   6,B   8)   -161.1597         0.010000   
    157. D(B  11,B   9,B   6,B   1)   -109.2860         0.010000   
    158. D(B  11,B   9,B   8,B   6)    137.2269         0.010000   
    159. D(B   4,B   9,B   6,B   8)   -160.4445         0.010000   
    160. D(B  11,B   9,B   2,B   4)     77.9513         0.010000   
    161. D(B   0,B  10,B   7,B   3)    -72.5152         0.069619   
    162. D(B   5,B  10,B   7,B   4)    110.7948         0.069619   
    163. D(B   5,B  10,B   7,B   3)    -43.7959         0.069619   
    164. D(B   4,B  10,B   7,B   3)   -154.5907         0.069619   
    165. D(B   3,B  10,B   7,B   4)    154.5907         0.069619   
    166. D(B   7,B  10,B   5,B   0)    -51.7732         0.010000   
    167. D(B   4,B  10,B   5,B   0)     49.3361         0.010000   
    168. D(B   7,B  10,B   4,B   2)    126.8401         0.010000   
    169. D(B   7,B  10,B   4,B   6)    175.2290         0.010000   
    170. D(B   7,B  10,B   4,B  11)     65.0224         0.010000   
    171. D(B   7,B  10,B   4,B   9)    112.8826         0.010000   
    172. D(B   3,B  10,B   4,B   2)     94.6237         0.010000   
    173. D(B   3,B  10,B   4,B   6)    143.0126         0.010000   
    174. D(B   3,B  10,B   4,B  11)     32.8060         0.010000   
    175. D(B   3,B  10,B   4,B   9)     80.6662         0.010000   
    176. D(B   3,B  10,B   4,B   7)    -32.2164         0.010000   
    177. D(B   0,B  10,B   3,B   7)    129.4637         0.020855   
    178. D(B   3,B  10,B   5,B   0)    -90.2924         0.010000   
    179. D(B   5,B  10,B   3,B   7)    159.1404         0.020855   
    180. D(B   4,B  10,B   3,B   7)     35.2548         0.020855   
    181. D(B   7,B  10,B   0,B   5)    150.0481         0.010000   
    182. D(B   7,B  10,B   0,B   2)    -74.9157         0.010000   
    183. D(B   4,B  10,B   0,B   5)   -135.2751         0.010000   
    184. D(B   4,B  10,B   0,B   2)     -0.2390         0.010000   
    185. D(B   3,B  10,B   0,B   5)     90.9366         0.010000   
    186. D(B   0,B  10,B   7,B   4)     82.0755         0.069619   
    187. D(B   3,B  10,B   0,B   2)   -134.0272         0.010000   
    188. D(B   4,B  11,B   9,B   6)      0.6904         0.149448   
    189. D(B   4,B  11,B   9,B   2)    -80.8827         0.149448   
    190. D(B   4,B  11,B   9,B   8)   -120.0184         0.149448   
    191. D(B   9,B  11,B   4,B   2)     41.4340         0.010000   
    192. D(B   9,B  11,B   4,B   6)     -0.3051         0.010000   
    193. D(B   9,B  11,B   4,B  10)    102.2279         0.010000   
    194. D(B   9,B  11,B   4,B   7)    139.5712         0.010000   
    -----------------------------------------------------------------

Number of atoms                         .... 12
Number of degrees of freedom            .... 194


         *************************************************************
         *                GEOMETRY OPTIMIZATION CYCLE   1            *
         *************************************************************
---------------------------------
CARTESIAN COORDINATES (ANGSTROEM)
---------------------------------
  B    -0.758213    1.412035   -1.048542
  B     1.257514    2.359467    0.127628
  B     0.273456    0.743286   -1.337014
  B    -2.725495   -0.600319    0.831573
  B     0.218245   -1.510270    0.775990
  B    -1.140664    2.041870    0.242159
  B     1.771929    1.079121    0.685310
  B    -1.787396   -1.719074    1.072907
  B     2.104204    0.773872   -0.877460
  B     1.304773   -1.494804   -0.754409
  B    -1.312921   -0.494019    1.194983
  B     0.794568   -2.591166   -0.913125

----------------------------
CARTESIAN COORDINATES (A.U.)
----------------------------
  NO LB    ZA    FRAG    MASS        X           Y           Z
   0 B   5.0000    0    10.810   -1.432815    2.668359   -1.981458
   1 B   5.0000    0    10.810    2.376356    4.458747    0.241182
   2 B   5.0000    0    10.810    0.516757    1.404607   -2.526590
   3 B   5.0000    0    10.810   -5.150438   -1.134438    1.571445
   4 B   5.0000    0    10.810    0.412423   -2.853996    1.466408
   5 B   5.0000    0    10.810   -2.155543    3.858575    0.457615
   6 B   5.0000    0    10.810    3.348460    2.039244    1.295048
   7 B   5.0000    0    10.810   -3.377690   -3.248580    2.027501
   8 B   5.0000    0    10.810    3.976370    1.462406   -1.658159
   9 B   5.0000    0    10.810    2.465664   -2.824770   -1.425626
  10 B   5.0000    0    10.810   -2.481060   -0.933561    2.258191
  11 B   5.0000    0    10.810    1.501515   -4.896594   -1.725557

      -----------------------------------------------------------      
     |                   =====================                   |     
     |                           x T B                           |     
     |                   =====================                   |     
     |                         S. Grimme                         |     
     |          Mulliken Center for Theoretical Chemistry        |     
     |                    University of Bonn                     |     
      -----------------------------------------------------------      

   * xtb version 6.6.1 (unknown) compiled by 'builduser@buildhost' on 2023-08-07

   xtb is free software: you can redistribute it and/or modify it under
   the terms of the GNU Lesser General Public License as published by
   the Free Software Foundation, either version 3 of the License, or
   (at your option) any later version.
   
   xtb is distributed in the hope that it will be useful,
   but WITHOUT ANY WARRANTY; without even the implied warranty of
   MERCHANTABILITY or FITNESS FOR A PARTICULAR PURPOSE.  See the
   GNU Lesser General Public License for more details.
   
   Cite this work as:
   * C. Bannwarth, E. Caldeweyher, S. Ehlert, A. Hansen, P. Pracht,
     J. Seibert, S. Spicher, S. Grimme, WIREs Comput. Mol. Sci., 2020, 11,
     e01493. DOI: 10.1002/wcms.1493
   
   for GFN2-xTB:
   * C. Bannwarth, S. Ehlert and S. Grimme., J. Chem. Theory Comput., 2019,
     15, 1652-1671. DOI: 10.1021/acs.jctc.8b01176
   for GFN1-xTB:
   * S. Grimme, C. Bannwarth, P. Shushkov, J. Chem. Theory Comput., 2017,
     13, 1989-2009. DOI: 10.1021/acs.jctc.7b00118
   for GFN0-xTB:
   * P. Pracht, E. Caldeweyher, S. Ehlert, S. Grimme, ChemRxiv, 2019, preprint.
     DOI: 10.26434/chemrxiv.8326202.v1
   for GFN-FF:
   * S. Spicher and S. Grimme, Angew. Chem. Int. Ed., 2020, 59, 15665-15673.
     DOI: 10.1002/anie.202004239
   
   for ALPB and GBSA implicit solvation:
   * S. Ehlert, M. Stahn, S. Spicher, S. Grimme, J. Chem. Theory Comput.,
     2021, 17, 4250-4261. DOI: 10.1021/acs.jctc.1c00471
   
   for DFT-D4:
   * E. Caldeweyher, C. Bannwarth and S. Grimme, J. Chem. Phys., 2017,
     147, 034112. DOI: 10.1063/1.4993215
   * E. Caldeweyher, S. Ehlert, A. Hansen, H. Neugebauer, S. Spicher,
     C. Bannwarth and S. Grimme, J. Chem. Phys., 2019, 150, 154122.
     DOI: 10.1063/1.5090222
   * E. Caldeweyher, J.-M. Mewes, S. Ehlert and S. Grimme, Phys. Chem. Chem. Phys.
     2020, 22, 8499-8512. DOI: 10.1039/D0CP00502A
   
   for sTDA-xTB:
   * S. Grimme and C. Bannwarth, J. Chem. Phys., 2016, 145, 054103.
     DOI: 10.1063/1.4959605
   
   in the mass-spec context:
   * V. Asgeirsson, C. Bauer and S. Grimme, Chem. Sci., 2017, 8, 4879.
     DOI: 10.1039/c7sc00601b
   * J. Koopman and S. Grimme, ACS Omega 2019, 4, 12, 15120-15133.
     DOI: 10.1021/acsomega.9b02011
   
   for metadynamics refer to:
   * S. Grimme, J. Chem. Theory Comput., 2019, 155, 2847-2862
     DOI: 10.1021/acs.jctc.9b00143
   
   for SPH calculations refer to:
   * S. Spicher and S. Grimme, J. Chem. Theory Comput., 2021, 17, 1701-1714
     DOI: 10.1021/acs.jctc.0c01306
   
   with help from (in alphabetical order)
   P. Atkinson, C. Bannwarth, F. Bohle, G. Brandenburg, E. Caldeweyher
   M. Checinski, S. Dohm, S. Ehlert, S. Ehrlich, I. Gerasimov, C. Hölzer
   A. Katbashev, J. Koopman, C. Lavigne, S. Lehtola, F. März, M. Müller,
   F. Musil, H. Neugebauer, J. Pisarek, C. Plett, P. Pracht, F. Pultar,
   J. Seibert, P. Shushkov, S. Spicher, M. Stahn, M. Steiner, T. Strunk,
   J. Stückrath, T. Rose, and J. Unsleber
   
 * started run on 2026/04/17 at 12:14:37.524     

           -------------------------------------------------
          |                Calculation Setup                |
           -------------------------------------------------

          program call               : /usr/bin/xtb random_d1.70_002_m3_XTB.xyz --grad -c 0 -u 2 -P 1 --namespace random_d1.70_002_m3 --input random_d1.70_002_m3_XTB.input.tmp --acc 0.200000
          calculation namespace      : random_d1.70_002_m3
          coordinate file            : random_d1.70_002_m3_XTB.xyz
          omp threads                :                     1

   ID    Z sym.   atoms
    1    5 B      1-12

molecular fragmentation (1/2 indicates fragments):
111221121222
# atoms in fragment 1/2:     6     6
 fragment masses (1/2) :       64.87       64.87
CMA distance (Bohr)    :   5.906
constraining FC (au)   :  0.0500

           -------------------------------------------------
          |                 G F N 2 - x T B                 |
           -------------------------------------------------

        Reference                      10.1021/acs.jctc.8b01176
      * Hamiltonian:
        H0-scaling (s, p, d)           1.850000    2.230000    2.230000
        zeta-weighting                 0.500000
      * Dispersion:
        s8                             2.700000
        a1                             0.520000
        a2                             5.000000
        s9                             5.000000
      * Repulsion:
        kExp                           1.500000    1.000000
        rExp                           1.000000
      * Coulomb:
        alpha                          2.000000
        third order                    shell-resolved
        anisotropic                    true
        a3                             3.000000
        a5                             4.000000
        cn-shift                       1.200000
        cn-exp                         4.000000
        max-rad                        5.000000


          ...................................................
          :                      SETUP                      :
          :.................................................:
          :  # basis functions                  48          :
          :  # atomic orbitals                  48          :
          :  # shells                           24          :
          :  # electrons                        36          :
          :  max. iterations                   250          :
          :  Hamiltonian                  GFN2-xTB          :
          :  restarted?                      false          :
          :  GBSA solvation                  false          :
          :  PC potential                    false          :
          :  electronic temp.          300.0000000     K    :
          :  accuracy                    0.2000000          :
          :  -> integral cutoff          0.3198970E+02      :
          :  -> integral neglect         0.2000000E-08      :
          :  -> SCF convergence          0.2000000E-06 Eh   :
          :  -> wf. convergence          0.2000000E-04 e    :
          :  Broyden damping             0.4000000          :
          ...................................................

 iter      E             dE          RMSdq      gap      omega  full diag
   1    -13.6668190 -0.136668E+02  0.200E+01    0.28       0.0  T
   2     -5.4971833  0.816964E+01  0.190E+01    0.21       1.0  T
   3     10.7499468  0.162471E+02  0.233E+01    0.92       1.0  T
   4     -3.6068362 -0.143568E+02  0.167E+01    0.15       1.0  T
   5     -8.1223458 -0.451551E+01  0.144E+01    0.22       1.0  T
   6    -11.2898023 -0.316746E+01  0.111E+01    0.60       1.0  T
   7    -11.9724286 -0.682626E+00  0.942E+00    0.18       1.0  T
   8    -12.9737913 -0.100136E+01  0.808E+00    0.48       1.0  T
   9    -13.7533938 -0.779602E+00  0.583E+00    0.33       1.0  T
  10    -13.9650553 -0.211662E+00  0.502E+00    0.20       1.0  T
  11    -14.0039857 -0.389304E-01  0.477E+00    0.15       1.0  T
  12    -13.9993203  0.466540E-02  0.480E+00    0.15       1.0  T
  13    -13.9938758  0.544455E-02  0.481E+00    0.16       1.0  T
  14    -13.9764425  0.174333E-01  0.456E+00    0.16       1.0  T
  15    -13.9819027 -0.546022E-02  0.384E+00    0.18       1.0  T
  16    -14.0154073 -0.335045E-01  0.290E+00    0.13       1.0  T
  17    -14.0087375  0.666973E-02  0.292E+00    0.10       1.0  T
  18    -14.0171336 -0.839609E-02  0.278E+00    0.09       1.0  T
  19    -14.0297973 -0.126636E-01  0.256E+00    0.08       1.0  T
  20    -14.0340359 -0.423866E-02  0.239E+00    0.08       1.0  T
  21    -14.0488429 -0.148069E-01  0.192E+00    0.09       1.0  T
  22    -14.0711779 -0.223350E-01  0.123E+00    0.08       1.0  T
  23    -14.0730528 -0.187489E-02  0.123E+00    0.05       1.0  T
  24    -14.0726891  0.363635E-03  0.105E+00    0.05       1.0  T
  25    -14.0748985 -0.220934E-02  0.714E-01    0.04       1.0  T
  26    -14.0781931 -0.329459E-02  0.456E-01    0.05       1.0  T
  27    -14.0801018 -0.190873E-02  0.271E-01    0.06       1.0  T
  28    -14.0801211 -0.192631E-04  0.266E-01    0.06       1.0  T
  29    -14.0802503 -0.129274E-03  0.200E-01    0.07       1.0  T
  30    -14.0801963  0.540721E-04  0.143E-01    0.07       1.0  T
  31    -14.0802149 -0.186565E-04  0.127E-01    0.07       1.0  T
  32    -14.0802567 -0.417791E-04  0.999E-02    0.07       1.0  T
  33    -14.0803926 -0.135896E-03  0.357E-02    0.07       1.0  T
  34    -14.0803699  0.226510E-04  0.438E-02    0.07       1.0  T
  35    -14.0803893 -0.194125E-04  0.233E-02    0.07       1.2  T
  36    -14.0803977 -0.837542E-05  0.544E-03    0.07       5.3  T
  37    -14.0803978 -0.378342E-07  0.308E-03    0.07       9.4  T
  38    -14.0803977  0.233718E-07  0.244E-03    0.07      11.8  T
  39    -14.0803978 -0.803746E-07  0.521E-04    0.07      55.4  T
  40    -14.0803978  0.463763E-08  0.664E-04    0.07      43.5  T
  41    -14.0803978 -0.304266E-08  0.410E-04    0.07      70.4  T
  42    -14.0803978 -0.224799E-08  0.100E-04    0.07     287.5  T
  43    -14.0803978  0.818901E-11  0.852E-05    0.07     338.7  T

   *** convergence criteria satisfied after 43 iterations ***

         #    Occupation            Energy/Eh            Energy/eV
      -------------------------------------------------------------
         1        2.0000           -0.4224382             -11.4951
       ...           ...                  ...                  ...
        13        2.0000           -0.2683551              -7.3023
        14        2.0000           -0.2604608              -7.0875
        15        2.0000           -0.2482127              -6.7542
        16        2.0000           -0.2412937              -6.5659
        17        1.7457           -0.2319925              -6.3128
        18        1.2543           -0.2299480              -6.2572
        19        0.7888           -0.2080328              -5.6609 (HOMO)
        20        0.2111           -0.2055285              -5.5927 (LUMO)
        21        0.0000           -0.1956771              -5.3246
        22                         -0.1798890              -4.8950
        23                         -0.1760166              -4.7897
        24                         -0.1713792              -4.6635
       ...                                ...                  ...
        48                          2.9578292              80.4866
      -------------------------------------------------------------
                  HL-Gap            0.0025043 Eh            0.0681 eV
             Fermi-level           -0.2188754 Eh           -5.9559 eV

 transition dipole moment (au) for excitation:          18          19
     X       Y       Z   
   0.3392   1.2434  -0.0174  total (au/Debye):    1.289   3.276
 dE (eV)             :    0.596
 oscillator strength :  0.34330E-01

 SCC (total)                   0 d,  0 h,  0 min,  0.051 sec
 SCC setup                      ...        0 min,  0.000 sec (  0.245%)
 Dispersion                     ...        0 min,  0.000 sec (  0.222%)
 classical contributions        ...        0 min,  0.000 sec (  0.057%)
 integral evaluation            ...        0 min,  0.003 sec (  5.195%)
 iterations                     ...        0 min,  0.040 sec ( 78.110%)
 molecular gradient             ...        0 min,  0.005 sec (  9.757%)
 printout                       ...        0 min,  0.003 sec (  6.370%)

         :::::::::::::::::::::::::::::::::::::::::::::::::::::
         ::                     SUMMARY                     ::
         :::::::::::::::::::::::::::::::::::::::::::::::::::::
         :: total energy             -13.530673537798 Eh    ::
         :: gradient norm              1.033432506906 Eh/a0 ::
         :: HOMO-LUMO gap              0.068145843896 eV    ::
         ::.................................................::
         :: SCC energy               -14.080397817697 Eh    ::
         :: -> isotropic ES            0.089475214036 Eh    ::
         :: -> anisotropic ES          0.004313872732 Eh    ::
         :: -> anisotropic XC         -0.028329845509 Eh    ::
         :: -> dispersion             -0.016311360032 Eh    ::
         :: repulsion energy           0.549682594814 Eh    ::
         :: add. restraining           0.000000000000 Eh    ::
         :: total charge               0.000000000000 e     ::
         :::::::::::::::::::::::::::::::::::::::::::::::::::::


Property printout bound to 'properties.out'

           -------------------------------------------------
          | TOTAL ENERGY              -13.530673537798 Eh   |
          | GRADIENT NORM               1.033432506906 Eh/α |
          | HOMO-LUMO GAP               0.068145843896 eV   |
           -------------------------------------------------

------------------------------------------------------------------------
 * finished run on 2026/04/17 at 12:14:37.588     
------------------------------------------------------------------------
 total:
 * wall-time:     0 d,  0 h,  0 min,  0.063 sec
 *  cpu-time:     0 d,  0 h,  0 min,  0.063 sec
 * ratio c/w:     0.996 speedup
 SCF:
 * wall-time:     0 d,  0 h,  0 min,  0.052 sec
 *  cpu-time:     0 d,  0 h,  0 min,  0.051 sec
 * ratio c/w:     0.997 speedup


-------------------------   --------------------
FINAL SINGLE POINT ENERGY       -13.530673537800
-------------------------   --------------------


-------------
DIPOLE MOMENT
-------------
                                X             Y             Z
Total Dipole Moment    :      0.33300      -0.45200       0.54600
                        -----------------------------------------
Magnitude (a.u.)       :      0.78314
Magnitude (Debye)      :      1.99058


------------------
CARTESIAN GRADIENT
------------------

   1   B   :    0.325066509   -0.208905989   -0.090681479
   2   B   :    0.040180232    0.023449825    0.001068517
   3   B   :   -0.381570926    0.199738476    0.083320924
   4   B   :    0.076842559   -0.002620411    0.012755707
   5   B   :    0.039062260   -0.002660582    0.048017681
   6   B   :   -0.021212482   -0.002679011    0.003481545
   7   B   :   -0.035498097   -0.001734687    0.042284505
   8   B   :    0.073787212    0.279088222    0.030219057
   9   B   :    0.071153407    0.014363426   -0.042045396
  10   B   :   -0.189042000   -0.472483584   -0.088024181
  11   B   :   -0.214806747   -0.255290733   -0.029743278
  12   B   :    0.216038073    0.429735049    0.029346397

Difference to translation invariance:
           :   -0.0000000000   -0.0000000000   -0.0000000000

Difference to rotation invariance:
           :    0.0000000170    0.0000000095    0.0000000733

Norm of the Cartesian gradient     ...    1.0334325069
RMS gradient                       ...    0.1722387512
MAX gradient                       ...    0.4724835845
------------------------------------------------------------------------------
                         ORCA GEOMETRY RELAXATION STEP
------------------------------------------------------------------------------

Reading the OPT-File                    .... done
Getting information on internals        .... done
Copying old internal coords+grads       .... done
Making the new internal coordinates     .... (2022 redundants) done
Validating the new internal coordinates .... (2022 redundants) done
Calculating the B-matrix                .... done
Calculating the G,G- and P matrices     .... done
Transforming gradient to internals      .... done
Projecting the internal gradient        .... done
Number of atoms                         ....  12
Number of internal coordinates          .... 194
Current Energy                          ....   -13.530673538 Eh
Current gradient norm                   ....     1.033432507 Eh/bohr
Maximum allowed component of the step   ....  0.300
Current trust radius                    ....  0.300
Evaluating the initial hessian          ....  (Almloef) done
Projecting the Hessian                  .... done
Forming the augmented Hessian           .... done
Diagonalizing the augmented Hessian     .... done
Last element of RFO vector              ....  0.882575579
Lowest eigenvalues of augmented Hessian:
 -0.279872985  0.015734502  0.023874218  0.024992056  0.027612538
Length of the computed step             ....  0.532725538
Warning: the length of the step is outside the trust region - taking restricted step instead
The input lambda is                     ....     0.014599
   iter:   5  x=   -0.002124  g=  533.909766 f(x)=     5.155835
   iter:  10  x=   -0.594447  g=    0.601576 f(x)=     0.158290
   iter:  15  x=   -0.989385  g=    0.099835 f(x)=     0.000000
The output lambda is                    ....    -0.989385 (16 iterations)
The final length of the internal step   ....  0.300000000
Converting the step to Cartesian space:
 Initial RMS(Int)=    0.0215387448
Transforming coordinates:
 Iter   0:  RMS(Cart)=    0.0349410956 RMS(Int)=    0.0215173419
done
Storing new coordinates                 .... done

                                .--------------------.
          ----------------------|Geometry convergence|-------------------------
          Item                value                   Tolerance       Converged
          ---------------------------------------------------------------------
          RMS gradient        0.0413326252            0.0000300000      NO
          MAX gradient        0.3189300706            0.0001000000      NO
          RMS step            0.0215387448            0.0006000000      NO
          MAX step            0.1554595614            0.0010000000      NO
          -------------------------------------------------------------------------
          ........................................................
          Max(Bonds)      0.0823      Max(Angles)    2.39
          Max(Dihed)        2.06      Max(Improp)    0.00
          ---------------------------------------------------------------------

The optimization has not yet converged - more geometry cycles are needed


    ---------------------------------------------------------------------------
                         Redundant Internal Coordinates
                            (Angstroem and degrees)

        Definition                    Value    dE/dq     Step     New-Value
    ----------------------------------------------------------------------------
     1. B(B   2,B   0)                1.2628 -0.313403  0.0777    1.3406   
     2. B(B   4,B   2)                3.0897 -0.018329  0.0036    3.0933   
     3. B(B   5,B   0)                1.4862  0.031308 -0.0072    1.4790   
     4. B(B   6,B   1)                1.4883  0.002729 -0.0014    1.4869   
     5. B(B   6,B   4)                3.0211 -0.024642  0.0039    3.0250   
     6. B(B   7,B   4)                2.0382 -0.014252  0.0019    2.0401   
     7. B(B   7,B   3)                1.4798 -0.078105  0.0209    1.5007   
     8. B(B   8,B   2)                1.8878  0.068141 -0.0301    1.8577   
     9. B(B   8,B   1)                2.0594  0.010179 -0.0045    2.0549   
    10. B(B   8,B   6)                1.6266  0.015592 -0.0079    1.6187   
    11. B(B   9,B   8)                2.4086  0.025904 -0.0101    2.3985   
    12. B(B   9,B   4)                1.8769  0.021328 -0.0115    1.8654   
    13. B(B   9,B   6)                2.9860  0.043485 -0.0151    2.9709   
    14. B(B   9,B   2)                2.5322  0.059649 -0.0190    2.5132   
    15. B(B  10,B   7)                1.3194 -0.144550  0.0461    1.3655   
    16. B(B  10,B   4)                1.8849 -0.034448  0.0011    1.8860   
    17. B(B  10,B   3)                1.4624 -0.064256  0.0215    1.4839   
    18. B(B  10,B   0)                2.9957 -0.003050  0.0018    2.9974   
    19. B(B  10,B   5)                2.7145 -0.018064  0.0063    2.7207   
    20. B(B  11,B   9)                1.2196 -0.318930  0.0823    1.3019   
    21. B(B  11,B   4)                2.0865 -0.078355  0.0142    2.1007   
    22. A(B   2,B   0,B   5)          129.27  0.029247   -1.03    128.24   
    23. A(B   2,B   0,B  10)           89.16  0.036351   -1.14     88.02   
    24. A(B   5,B   0,B  10)           64.63 -0.006339    0.21     64.84   
    25. A(B   6,B   1,B   8)           51.57  0.002920   -0.18     51.39   
    26. A(B   0,B   2,B   9)          138.44  0.018621   -0.58    137.86   
    27. A(B   0,B   2,B   4)          102.44  0.013639   -0.34    102.11   
    28. A(B   0,B   2,B   8)          136.72  0.005340   -0.31    136.42   
    29. A(B   8,B   2,B   9)           64.11 -0.011416    0.42     64.53   
    30. A(B   4,B   2,B   9)           37.37  0.006151   -0.29     37.08   
    31. A(B   4,B   2,B   8)           82.11 -0.009840    0.27     82.38   
    32. A(B   7,B   3,B  10)           53.28 -0.032429    1.18     54.46   
    33. A(B   2,B   4,B   7)          101.07 -0.031501    1.12    102.19   
    34. A(B   9,B   4,B  11)           35.34 -0.081562    2.39     37.73   
    35. A(B   2,B   4,B  11)           79.59 -0.045500    1.37     80.96   
    36. A(B   6,B   4,B  11)          106.12 -0.064734    1.92    108.04   
    37. A(B   6,B   4,B   9)           70.78  0.016826   -0.47     70.31   
    38. A(B   2,B   4,B   9)           54.97  0.020695   -0.66     54.32   
    39. A(B   7,B   4,B  10)           39.06 -0.037625    1.41     40.46   
    40. A(B   6,B   4,B   7)          126.74 -0.019970    0.63    127.37   
    41. A(B  10,B   4,B  11)          133.13  0.004269    0.09    133.21   
    42. A(B   9,B   4,B  10)          130.32  0.011202   -0.33    129.99   
    43. A(B   7,B   4,B  11)          109.67  0.060592   -1.79    107.88   
    44. A(B   7,B   4,B   9)          133.57 -0.007790    0.24    133.81   
    45. A(B   2,B   4,B   6)           49.09  0.012244   -0.51     48.58   
    46. A(B   2,B   4,B  10)           76.90 -0.003892    0.14     77.03   
    47. A(B   6,B   4,B  10)           87.84  0.017712   -0.77     87.07   
    48. A(B   0,B   5,B  10)           85.71 -0.000301   -0.03     85.69   
    49. A(B   4,B   6,B   9)           36.41  0.003078   -0.17     36.24   
    50. A(B   1,B   6,B   4)          124.81  0.008600   -0.50    124.31   
    51. A(B   1,B   6,B   8)           82.65 -0.001085    0.09     82.74   
    52. A(B   4,B   6,B   8)           88.46 -0.001112   -0.06     88.39   
    53. A(B   8,B   6,B   9)           53.63 -0.003147    0.07     53.70   
    54. A(B   1,B   6,B   9)          120.45  0.005746   -0.30    120.15   
    55. A(B   4,B   7,B  10)           64.18  0.004008   -0.48     63.70   
    56. A(B   3,B   7,B  10)           62.68  0.020401   -0.54     62.14   
    57. A(B   3,B   7,B   4)          121.51  0.023677   -0.99    120.52   
    58. A(B   1,B   8,B   6)           45.78 -0.001835    0.08     45.87   
    59. A(B   6,B   8,B   9)           93.43  0.005050   -0.08     93.35   
    60. A(B   2,B   8,B   9)           71.05  0.003592    0.04     71.09   
    61. A(B   1,B   8,B   9)          124.32  0.011003   -0.41    123.91   
    62. A(B   1,B   8,B   2)           74.49  0.002229   -0.28     74.21   
    63. A(B   2,B   8,B   6)           92.22 -0.007102    0.32     92.55   
    64. A(B   2,B   9,B  11)          126.46 -0.008535    0.49    126.94   
    65. A(B   2,B   9,B   4)           87.66 -0.026847    0.95     88.60   
    66. A(B   8,B   9,B  11)          168.22 -0.003298    0.12    168.34   
    67. A(B   4,B   9,B   8)          103.98 -0.022457    0.67    104.65   
    68. A(B   2,B   9,B   6)           54.04  0.000573   -0.16     53.88   
    69. A(B   4,B   9,B  11)           81.75  0.024132   -0.73     81.02   
    70. A(B   6,B   9,B   8)           32.94 -0.001903    0.01     32.95   
    71. A(B   6,B   9,B  11)          154.56  0.004232   -0.09    154.47   
    72. A(B   4,B   9,B   6)           72.81 -0.019904    0.64     73.45   
    73. A(B   2,B   9,B   8)           44.84  0.007824   -0.46     44.37   
    74. A(B   3,B  10,B   4)          133.65  0.040718   -1.40    132.25   
    75. A(B   0,B  10,B   5)           29.65  0.006640   -0.18     29.47   
    76. A(B   0,B  10,B   7)          126.02 -0.010308    0.28    126.30   
    77. A(B   0,B  10,B   4)           91.50 -0.046020    1.34     92.84   
    78. A(B   0,B  10,B   3)           92.24  0.010979   -0.21     92.02   
    79. A(B   5,B  10,B   7)          149.07 -0.006957    0.20    149.27   
    80. A(B   4,B  10,B   5)          111.97 -0.039889    1.14    113.10   
    81. A(B   3,B  10,B   5)           92.41 -0.007249    0.45     92.86   
    82. A(B   4,B  10,B   7)           76.76  0.033617   -0.92     75.84   
    83. A(B   3,B  10,B   7)           64.03  0.012028   -0.64     63.39   
    84. A(B   4,B  11,B   9)           62.90  0.057431   -1.66     61.25   
    85. D(B   8,B   2,B   0,B   5)    -35.95 -0.001986    0.13    -35.82   
    86. D(B   4,B   2,B   0,B   5)     55.72 -0.000630    0.11     55.83   
    87. D(B   8,B   2,B   0,B  10)    -91.52 -0.012505    0.40    -91.13   
    88. D(B   9,B   2,B   0,B  10)     12.23 -0.002667    0.03     12.26   
    89. D(B   9,B   2,B   0,B   5)     67.80  0.007852   -0.23     67.57   
    90. D(B   7,B   4,B   2,B   8)    166.91 -0.004398    0.16    167.06   
    91. D(B   9,B   4,B   2,B   0)    166.78 -0.002486    0.13    166.91   
    92. D(B   7,B   4,B   2,B   0)     30.68 -0.008562    0.43     31.11   
    93. D(B  10,B   4,B   2,B   8)    135.99  0.022309   -0.88    135.11   
    94. D(B  10,B   4,B   2,B   9)   -167.02  0.020632   -0.73   -167.75   
    95. D(B   7,B   4,B   2,B   9)   -136.10 -0.006075    0.31   -135.80   
    96. D(B   9,B   4,B   2,B   8)    -56.99  0.001677   -0.15    -57.14   
    97. D(B  10,B   4,B   2,B   0)     -0.24  0.018146   -0.60     -0.84   
    98. D(B  10,B   5,B   0,B   2)    -65.89 -0.024008    0.65    -65.23   
    99. D(B   1,B   6,B   4,B  11)     95.77  0.000172    0.05     95.82   
   100. D(B   1,B   6,B   4,B   7)    -35.01  0.002735   -0.06    -35.07   
   101. D(B   8,B   6,B   4,B  10)   -118.70  0.007494   -0.35   -119.05   
   102. D(B   9,B   6,B   1,B   8)    -39.69  0.011040   -0.48    -40.17   
   103. D(B   8,B   6,B   4,B   9)     15.64  0.004241   -0.12     15.52   
   104. D(B   1,B   6,B   4,B   9)     95.58  0.000823    0.02     95.61   
   105. D(B   1,B   6,B   4,B   2)     35.73 -0.014410    0.57     36.29   
   106. D(B   8,B   6,B   4,B   7)   -114.95  0.006153   -0.21   -115.16   
   107. D(B   1,B   6,B   4,B  10)    -38.76  0.004076   -0.20    -38.96   
   108. D(B   4,B   6,B   1,B   8)    -82.95  0.004011   -0.10    -83.05   
   109. D(B   3,B   7,B   4,B  11)   -108.80  0.056591   -1.86   -110.66   
   110. D(B   3,B   7,B   4,B   6)     20.61  0.004772   -0.28     20.32   
   111. D(B   3,B   7,B   4,B   9)    -77.62  0.005421   -0.39    -78.01   
   112. D(B   3,B   7,B   4,B   2)    -26.02  0.006407   -0.28    -26.30   
   113. D(B   4,B   7,B   3,B  10)    -26.94 -0.003299    0.23    -26.71   
   114. D(B   3,B   7,B   4,B  10)     26.56  0.007543   -0.25     26.31   
   115. D(B  10,B   7,B   4,B   9)   -104.18 -0.002123   -0.14   -104.32   
   116. D(B  10,B   7,B   4,B  11)   -135.37  0.049047   -1.61   -136.97   
   117. D(B   2,B   8,B   6,B   4)     59.68 -0.001042    0.20     59.88   
   118. D(B   9,B   8,B   6,B   1)   -136.86 -0.013458    0.66   -136.20   
   119. D(B   2,B   8,B   6,B   9)     71.14  0.003347    0.06     71.20   
   120. D(B   1,B   8,B   6,B   4)    125.40  0.009070   -0.51    124.89   
   121. D(B   1,B   8,B   6,B   9)    136.86  0.013458   -0.66    136.20   
   122. D(B   6,B   8,B   2,B   4)    -58.41  0.000735   -0.14    -58.55   
   123. D(B   6,B   8,B   2,B   9)    -92.87 -0.007846    0.20    -92.67   
   124. D(B   6,B   8,B   2,B   0)     41.38  0.010496   -0.35     41.03   
   125. D(B   1,B   8,B   2,B   9)   -135.56 -0.009836    0.35   -135.21   
   126. D(B   2,B   8,B   6,B   1)    -65.72 -0.010112    0.72    -65.00   
   127. D(B   1,B   8,B   2,B   0)     -1.31  0.008506   -0.20     -1.51   
   128. D(B   9,B   8,B   1,B   6)     55.73 -0.010500    0.63     56.36   
   129. D(B   1,B   8,B   2,B   4)   -101.10 -0.001255    0.01   -101.09   
   130. D(B   2,B   8,B   1,B   6)    109.04 -0.012223    0.75    109.79   
   131. D(B   8,B   9,B   4,B   2)     42.14  0.004855   -0.33     41.80   
   132. D(B   8,B   9,B   4,B   6)    -10.81 -0.001701    0.06    -10.75   
   133. D(B   8,B   9,B   4,B  11)    169.50 -0.002059    0.08    169.58   
   134. D(B   8,B   9,B   4,B   7)    112.06 -0.015839    0.55    112.61   
   135. D(B  11,B   9,B   4,B   2)   -127.36  0.006913   -0.42   -127.78   
   136. D(B  11,B   9,B   4,B   6)    179.69  0.000357   -0.02    179.67   
   137. D(B  11,B   9,B   4,B  10)   -110.69  0.036298   -1.43   -112.12   
   138. D(B  11,B   9,B   4,B   7)    -57.44 -0.013780    0.47    -56.97   
   139. D(B   8,B   9,B   2,B   4)   -112.58  0.007423   -0.17   -112.75   
   140. D(B   8,B   9,B   2,B   0)   -132.25 -0.002792    0.23   -132.02   
   141. D(B  11,B   9,B   2,B   0)     58.28  0.001360    0.10     58.38   
   142. D(B   8,B   9,B   4,B  10)     58.81  0.034240   -1.35     57.46   
   143. D(B   4,B   9,B   2,B   8)    112.58 -0.007423    0.17    112.75   
   144. D(B  11,B   9,B   2,B   8)   -169.47  0.004152   -0.13   -169.60   
   145. D(B   4,B   9,B   2,B   0)    -19.67 -0.010215    0.40    -19.27   
   146. D(B   4,B   9,B   6,B   1)   -108.57 -0.007980    0.51   -108.06   
   147. D(B   2,B   9,B   8,B   1)     54.78 -0.002690   -0.00     54.78   
   148. D(B  11,B   9,B   8,B   2)     46.05  0.013307   -0.49     45.56   
   149. D(B  11,B   9,B   8,B   1)    100.83  0.010617   -0.49    100.34   
   150. D(B   4,B   9,B   8,B   6)     19.24  0.001987   -0.05     19.19   
   151. D(B   4,B   9,B   8,B   2)    -71.94  0.011042   -0.42    -72.35   
   152. D(B   4,B   9,B   8,B   1)    -17.16  0.008353   -0.42    -17.58   
   153. D(B   8,B   9,B   6,B   4)    160.44 -0.006194    0.18    160.62   
   154. D(B   8,B   9,B   6,B   1)     51.87 -0.014174    0.69     52.56   
   155. D(B  11,B   9,B   6,B   4)     -0.72  0.000668   -0.05     -0.76   
   156. D(B  11,B   9,B   6,B   8)   -161.16  0.006862   -0.22   -161.38   
   157. D(B  11,B   9,B   6,B   1)   -109.29 -0.007312    0.46   -108.82   
   158. D(B  11,B   9,B   8,B   6)    137.23  0.004251   -0.12    137.11   
   159. D(B   4,B   9,B   6,B   8)   -160.44  0.006194   -0.18   -160.62   
   160. D(B  11,B   9,B   2,B   4)     77.95  0.011575   -0.30     77.65   
   161. D(B   0,B  10,B   7,B   3)    -72.52 -0.034456    1.10    -71.41   
   162. D(B   5,B  10,B   7,B   4)    110.79 -0.024738    0.77    111.56   
   163. D(B   5,B  10,B   7,B   3)    -43.80 -0.029469    0.95    -42.85   
   164. D(B   4,B  10,B   7,B   3)   -154.59 -0.004731    0.18   -154.41   
   165. D(B   3,B  10,B   7,B   4)    154.59  0.004731   -0.18    154.41   
   166. D(B   7,B  10,B   5,B   0)    -51.77 -0.006262    0.21    -51.56   
   167. D(B   4,B  10,B   5,B   0)     49.34 -0.012440    0.47     49.80   
   168. D(B   7,B  10,B   4,B   2)    126.84 -0.010593    0.30    127.14   
   169. D(B   7,B  10,B   4,B   6)    175.23 -0.003407    0.01    175.24   
   170. D(B   7,B  10,B   4,B  11)     65.02  0.068723   -1.94     63.08   
   171. D(B   7,B  10,B   4,B   9)    112.88 -0.038811    1.27    114.15   
   172. D(B   3,B  10,B   4,B   2)     94.62 -0.032482    1.10     95.72   
   173. D(B   3,B  10,B   4,B   6)    143.01 -0.025296    0.81    143.82   
   174. D(B   3,B  10,B   4,B  11)     32.81  0.046834   -1.15     31.66   
   175. D(B   3,B  10,B   4,B   9)     80.67 -0.060700    2.06     82.73   
   176. D(B   3,B  10,B   4,B   7)    -32.22 -0.021889    0.79    -31.42   
   177. D(B   0,B  10,B   3,B   7)    129.46 -0.022808    0.68    130.14   
   178. D(B   3,B  10,B   5,B   0)    -90.29 -0.035147    1.23    -89.06   
   179. D(B   5,B  10,B   3,B   7)    159.14 -0.016019    0.50    159.64   
   180. D(B   4,B  10,B   3,B   7)     35.25  0.026005   -0.82     34.43   
   181. D(B   7,B  10,B   0,B   5)    150.05 -0.005213    0.17    150.22   
   182. D(B   7,B  10,B   0,B   2)    -74.92  0.008468   -0.39    -75.31   
   183. D(B   4,B  10,B   0,B   5)   -135.28  0.004161   -0.02   -135.30   
   184. D(B   4,B  10,B   0,B   2)     -0.24  0.017843   -0.59     -0.83   
   185. D(B   3,B  10,B   0,B   5)     90.94 -0.033865    1.29     92.22   
   186. D(B   0,B  10,B   7,B   4)     82.08 -0.029725    0.92     83.00   
   187. D(B   3,B  10,B   0,B   2)   -134.03 -0.020184    0.72   -133.30   
   188. D(B   4,B  11,B   9,B   6)      0.69 -0.000761    0.05      0.74   
   189. D(B   4,B  11,B   9,B   2)    -80.88  0.013248   -0.51    -81.39   
   190. D(B   4,B  11,B   9,B   8)   -120.02  0.001538   -0.04   -120.06   
   191. D(B   9,B  11,B   4,B   2)     41.43  0.024843   -0.91     40.52   
   192. D(B   9,B  11,B   4,B   6)     -0.31  0.000419   -0.02     -0.33   
   193. D(B   9,B  11,B   4,B  10)    102.23 -0.037843    0.85    103.08   
   194. D(B   9,B  11,B   4,B   7)    139.57 -0.032265    0.99    140.56   
    ----------------------------------------------------------------------------

Geometry step timings:
Preparation and reading OPT file:      0.000 s ( 0.157 %)
Internal coordinates            :      0.000 s ( 0.373 %)
B/P matrices and projection     :      0.003 s (13.623 %)
Hessian update/contruction      :      0.008 s (43.877 %)
Making the step                 :      0.006 s (32.096 %)
Converting the step to Cartesian:      0.000 s ( 1.404 %)
Storing new data                :      0.000 s ( 0.492 %)
Checking convergence            :      0.000 s ( 0.551 %)
Final printing                  :      0.001 s ( 7.411 %)
Total time                      :      0.019 s

Time for energy+gradient        :      0.075 s
Time for complete geometry iter :      0.095 s

         *************************************************************
         *                GEOMETRY OPTIMIZATION CYCLE   2            *
         *************************************************************
---------------------------------
CARTESIAN COORDINATES (ANGSTROEM)
---------------------------------
  B    -0.784919    1.454750   -1.039934
  B     1.243126    2.355972    0.116111
  B     0.310534    0.743632   -1.342413
  B    -2.727044   -0.610957    0.821489
  B     0.223990   -1.512101    0.772273
  B    -1.147752    2.070953    0.254707
  B     1.771608    1.085356    0.679144
  B    -1.780584   -1.749202    1.067338
  B     2.107899    0.776334   -0.873754
  B     1.311520   -1.482264   -0.742712
  B    -1.296490   -0.478472    1.193110
  B     0.768112   -2.654001   -0.905359

----------------------------
CARTESIAN COORDINATES (A.U.)
----------------------------
  NO LB    ZA    FRAG    MASS        X           Y           Z
   0 B   5.0000    0    10.810   -1.483282    2.749079   -1.965191
   1 B   5.0000    0    10.810    2.349167    4.452141    0.219418
   2 B   5.0000    0    10.810    0.586825    1.405260   -2.536793
   3 B   5.0000    0    10.810   -5.153367   -1.154541    1.552389
   4 B   5.0000    0    10.810    0.423281   -2.857457    1.459385
   5 B   5.0000    0    10.810   -2.168937    3.913534    0.481326
   6 B   5.0000    0    10.810    3.347854    2.051025    1.283396
   7 B   5.0000    0    10.810   -3.364817   -3.305513    2.016977
   8 B   5.0000    0    10.810    3.983352    1.467059   -1.651156
   9 B   5.0000    0    10.810    2.478414   -2.801072   -1.403522
  10 B   5.0000    0    10.810   -2.450012   -0.904182    2.254651
  11 B   5.0000    0    10.810    1.451521   -5.015335   -1.710881

      -----------------------------------------------------------      
     |                   =====================                   |     
     |                           x T B                           |     
     |                   =====================                   |     
     |                         S. Grimme                         |     
     |          Mulliken Center for Theoretical Chemistry        |     
     |                    University of Bonn                     |     
      -----------------------------------------------------------      

   * xtb version 6.6.1 (unknown) compiled by 'builduser@buildhost' on 2023-08-07

   xtb is free software: you can redistribute it and/or modify it under
   the terms of the GNU Lesser General Public License as published by
   the Free Software Foundation, either version 3 of the License, or
   (at your option) any later version.
   
   xtb is distributed in the hope that it will be useful,
   but WITHOUT ANY WARRANTY; without even the implied warranty of
   MERCHANTABILITY or FITNESS FOR A PARTICULAR PURPOSE.  See the
   GNU Lesser General Public License for more details.
   
   Cite this work as:
   * C. Bannwarth, E. Caldeweyher, S. Ehlert, A. Hansen, P. Pracht,
     J. Seibert, S. Spicher, S. Grimme, WIREs Comput. Mol. Sci., 2020, 11,
     e01493. DOI: 10.1002/wcms.1493
   
   for GFN2-xTB:
   * C. Bannwarth, S. Ehlert and S. Grimme., J. Chem. Theory Comput., 2019,
     15, 1652-1671. DOI: 10.1021/acs.jctc.8b01176
   for GFN1-xTB:
   * S. Grimme, C. Bannwarth, P. Shushkov, J. Chem. Theory Comput., 2017,
     13, 1989-2009. DOI: 10.1021/acs.jctc.7b00118
   for GFN0-xTB:
   * P. Pracht, E. Caldeweyher, S. Ehlert, S. Grimme, ChemRxiv, 2019, preprint.
     DOI: 10.26434/chemrxiv.8326202.v1
   for GFN-FF:
   * S. Spicher and S. Grimme, Angew. Chem. Int. Ed., 2020, 59, 15665-15673.
     DOI: 10.1002/anie.202004239
   
   for ALPB and GBSA implicit solvation:
   * S. Ehlert, M. Stahn, S. Spicher, S. Grimme, J. Chem. Theory Comput.,
     2021, 17, 4250-4261. DOI: 10.1021/acs.jctc.1c00471
   
   for DFT-D4:
   * E. Caldeweyher, C. Bannwarth and S. Grimme, J. Chem. Phys., 2017,
     147, 034112. DOI: 10.1063/1.4993215
   * E. Caldeweyher, S. Ehlert, A. Hansen, H. Neugebauer, S. Spicher,
     C. Bannwarth and S. Grimme, J. Chem. Phys., 2019, 150, 154122.
     DOI: 10.1063/1.5090222
   * E. Caldeweyher, J.-M. Mewes, S. Ehlert and S. Grimme, Phys. Chem. Chem. Phys.
     2020, 22, 8499-8512. DOI: 10.1039/D0CP00502A
   
   for sTDA-xTB:
   * S. Grimme and C. Bannwarth, J. Chem. Phys., 2016, 145, 054103.
     DOI: 10.1063/1.4959605
   
   in the mass-spec context:
   * V. Asgeirsson, C. Bauer and S. Grimme, Chem. Sci., 2017, 8, 4879.
     DOI: 10.1039/c7sc00601b
   * J. Koopman and S. Grimme, ACS Omega 2019, 4, 12, 15120-15133.
     DOI: 10.1021/acsomega.9b02011
   
   for metadynamics refer to:
   * S. Grimme, J. Chem. Theory Comput., 2019, 155, 2847-2862
     DOI: 10.1021/acs.jctc.9b00143
   
   for SPH calculations refer to:
   * S. Spicher and S. Grimme, J. Chem. Theory Comput., 2021, 17, 1701-1714
     DOI: 10.1021/acs.jctc.0c01306
   
   with help from (in alphabetical order)
   P. Atkinson, C. Bannwarth, F. Bohle, G. Brandenburg, E. Caldeweyher
   M. Checinski, S. Dohm, S. Ehlert, S. Ehrlich, I. Gerasimov, C. Hölzer
   A. Katbashev, J. Koopman, C. Lavigne, S. Lehtola, F. März, M. Müller,
   F. Musil, H. Neugebauer, J. Pisarek, C. Plett, P. Pracht, F. Pultar,
   J. Seibert, P. Shushkov, S. Spicher, M. Stahn, M. Steiner, T. Strunk,
   J. Stückrath, T. Rose, and J. Unsleber
   
 * started run on 2026/04/17 at 12:14:37.617     

           -------------------------------------------------
          |                Calculation Setup                |
           -------------------------------------------------

          program call               : /usr/bin/xtb random_d1.70_002_m3_XTB.xyz --grad -c 0 -u 2 -P 1 --namespace random_d1.70_002_m3 --input random_d1.70_002_m3_XTB.input.tmp --acc 0.200000
          calculation namespace      : random_d1.70_002_m3
          coordinate file            : random_d1.70_002_m3_XTB.xyz
          omp threads                :                     1

   ID    Z sym.   atoms
    1    5 B      1-12

molecular fragmentation (1/2 indicates fragments):
111221121222
# atoms in fragment 1/2:     6     6
 fragment masses (1/2) :       64.87       64.87
CMA distance (Bohr)    :   5.948
constraining FC (au)   :  0.0500

           -------------------------------------------------
          |                 G F N 2 - x T B                 |
           -------------------------------------------------

        Reference                      10.1021/acs.jctc.8b01176
      * Hamiltonian:
        H0-scaling (s, p, d)           1.850000    2.230000    2.230000
        zeta-weighting                 0.500000
      * Dispersion:
        s8                             2.700000
        a1                             0.520000
        a2                             5.000000
        s9                             5.000000
      * Repulsion:
        kExp                           1.500000    1.000000
        rExp                           1.000000
      * Coulomb:
        alpha                          2.000000
        third order                    shell-resolved
        anisotropic                    true
        a3                             3.000000
        a5                             4.000000
        cn-shift                       1.200000
        cn-exp                         4.000000
        max-rad                        5.000000

q/qsh data taken from xtbrestart
CAMM data taken from xtbrestart

          ...................................................
          :                      SETUP                      :
          :.................................................:
          :  # basis functions                  48          :
          :  # atomic orbitals                  48          :
          :  # shells                           24          :
          :  # electrons                        36          :
          :  max. iterations                   250          :
          :  Hamiltonian                  GFN2-xTB          :
          :  restarted?                       true          :
          :  GBSA solvation                  false          :
          :  PC potential                    false          :
          :  electronic temp.          300.0000000     K    :
          :  accuracy                    0.2000000          :
          :  -> integral cutoff          0.3198970E+02      :
          :  -> integral neglect         0.2000000E-08      :
          :  -> SCF convergence          0.2000000E-06 Eh   :
          :  -> wf. convergence          0.2000000E-04 e    :
          :  Broyden damping             0.4000000          :
          ...................................................

 iter      E             dE          RMSdq      gap      omega  full diag
   1    -14.0256718 -0.140257E+02  0.155E+00    0.05       0.0  T
   2    -13.3012785  0.724393E+00  0.545E+00    0.36       1.0  T
   3    -13.8309407 -0.529662E+00  0.309E+00    0.22       1.0  T
   4    -14.0096541 -0.178713E+00  0.147E+00    0.03       1.0  T
   5    -13.9483778  0.612763E-01  0.209E+00    0.09       1.0  T
   6    -13.9760031 -0.276253E-01  0.168E+00    0.10       1.0  T
   7    -14.0102826 -0.342795E-01  0.137E+00    0.13       1.0  T
   8    -14.0204760 -0.101933E-01  0.110E+00    0.08       1.0  T
   9    -14.0225456 -0.206962E-02  0.106E+00    0.09       1.0  T
  10    -14.0254798 -0.293420E-02  0.988E-01    0.09       1.0  T
  11    -14.0345206 -0.904084E-02  0.658E-01    0.07       1.0  T
  12    -14.0391144 -0.459375E-02  0.417E-01    0.06       1.0  T
  13    -14.0399475 -0.833083E-03  0.348E-01    0.06       1.0  T
  14    -14.0396371  0.310347E-03  0.354E-01    0.05       1.0  T
  15    -14.0401206 -0.483421E-03  0.316E-01    0.05       1.0  T
  16    -14.0405684 -0.447818E-03  0.242E-01    0.05       1.0  T
  17    -14.0406229 -0.545525E-04  0.231E-01    0.05       1.0  T
  18    -14.0409430 -0.320037E-03  0.180E-01    0.05       1.0  T
  19    -14.0411652 -0.222253E-03  0.127E-01    0.05       1.0  T
  20    -14.0413926 -0.227358E-03  0.476E-02    0.05       1.0  T
  21    -14.0413896  0.295185E-05  0.450E-02    0.05       1.0  T
  22    -14.0413658  0.238089E-04  0.608E-02    0.05       1.0  T
  23    -14.0414085 -0.427251E-04  0.274E-02    0.05       1.1  T
  24    -14.0414173 -0.874506E-05  0.702E-03    0.05       4.1  T
  25    -14.0414179 -0.640942E-06  0.121E-03    0.05      23.8  T
  26    -14.0414179 -0.280323E-08  0.356E-04    0.05      81.2  T
  27    -14.0414179  0.894929E-08  0.874E-04    0.05      33.0  T
  28    -14.0414179 -0.108717E-07  0.110E-04    0.05     263.5  T
  29    -14.0414179 -0.169528E-09  0.308E-05    0.05     937.9  T

   *** convergence criteria satisfied after 29 iterations ***

         #    Occupation            Energy/Eh            Energy/eV
      -------------------------------------------------------------
         1        2.0000           -0.4197719             -11.4226
       ...           ...                  ...                  ...
        13        2.0000           -0.2672342              -7.2718
        14        2.0000           -0.2603597              -7.0847
        15        2.0000           -0.2485718              -6.7640
        16        2.0000           -0.2418342              -6.5806
        17        1.8553           -0.2332343              -6.3466
        18        1.1447           -0.2298584              -6.2548
        19        0.7340           -0.2083431              -5.6693 (HOMO)
        20        0.2659           -0.2064141              -5.6168 (LUMO)
        21        0.0000           -0.1975791              -5.3764
        22                         -0.1797735              -4.8919
        23                         -0.1737174              -4.7271
        24                         -0.1712734              -4.6606
       ...                                ...                  ...
        48                          2.0384199              55.4682
      -------------------------------------------------------------
                  HL-Gap            0.0019290 Eh            0.0525 eV
             Fermi-level           -0.2194625 Eh           -5.9719 eV

 transition dipole moment (au) for excitation:          18          19
     X       Y       Z   
   1.4449   0.7524  -0.4033  total (au/Debye):    1.678   4.266
 dE (eV)             :    0.585
 oscillator strength :  0.57133E-01

 SCC (total)                   0 d,  0 h,  0 min,  0.038 sec
 SCC setup                      ...        0 min,  0.000 sec (  0.384%)
 Dispersion                     ...        0 min,  0.000 sec (  0.227%)
 classical contributions        ...        0 min,  0.000 sec (  0.074%)
 integral evaluation            ...        0 min,  0.003 sec (  7.527%)
 iterations                     ...        0 min,  0.027 sec ( 69.282%)
 molecular gradient             ...        0 min,  0.005 sec ( 12.379%)
 printout                       ...        0 min,  0.004 sec ( 10.056%)

         :::::::::::::::::::::::::::::::::::::::::::::::::::::
         ::                     SUMMARY                     ::
         :::::::::::::::::::::::::::::::::::::::::::::::::::::
         :: total energy             -13.658563307956 Eh    ::
         :: gradient norm              0.576232055050 Eh/a0 ::
         :: HOMO-LUMO gap              0.052490987291 eV    ::
         ::.................................................::
         :: SCC energy               -14.041417925784 Eh    ::
         :: -> isotropic ES            0.090227679843 Eh    ::
         :: -> anisotropic ES          0.004829826425 Eh    ::
         :: -> anisotropic XC         -0.028980004583 Eh    ::
         :: -> dispersion             -0.016117922777 Eh    ::
         :: repulsion energy           0.382812089183 Eh    ::
         :: add. restraining           0.000000000000 Eh    ::
         :: total charge              -0.000000000000 e     ::
         :::::::::::::::::::::::::::::::::::::::::::::::::::::


Property printout bound to 'properties.out'

           -------------------------------------------------
[...]
     8. B(B   8,B   2)                1.7349 -0.001446  0.0067    1.7417   
     9. B(B   8,B   1)                3.0016  0.000618  0.0188    3.0204   
    10. B(B   8,B   6)                1.5515  0.001465 -0.0081    1.5434   
    11. B(B   9,B   8)                1.5460 -0.001755  0.0009    1.5469   
    12. B(B   9,B   4)                2.8969 -0.001956  0.0124    2.9093   
    13. B(B   9,B   6)                2.6494 -0.000311  0.0167    2.6661   
    14. B(B   9,B   2)                1.6345  0.000504 -0.0039    1.6306   
    15. B(B  10,B   7)                2.2666 -0.000051  0.0020    2.2686   
    16. B(B  10,B   4)                2.6845 -0.001656  0.0101    2.6946   
    17. B(B  10,B   3)                1.5105  0.003903  0.0025    1.5130   
    18. B(B  10,B   0)                3.9684  0.000397 -0.0076    3.9608   
    19. B(B  10,B   5)                3.0013  0.000309  0.0020    3.0033   
    20. B(B  11,B   9)                1.5323 -0.002216  0.0037    1.5360   
    21. B(B  11,B   4)                1.5087 -0.000292  0.0025    1.5112   
    22. A(B   2,B   0,B   5)          127.51  0.000191    1.75    129.25   
    23. A(B   2,B   0,B  10)           88.42 -0.000177    1.21     89.63   
    24. A(B   5,B   0,B  10)           41.65  0.000436    0.53     42.19   
    25. A(B   6,B   1,B   8)           22.83  0.000965   -0.85     21.98   
    26. A(B   0,B   2,B   9)          149.56 -0.000259   -0.88    148.68   
    27. A(B   0,B   2,B   4)          103.20  0.000229   -0.86    102.34   
    28. A(B   0,B   2,B   8)          110.78  0.000208   -2.29    108.49   
    29. A(B   8,B   2,B   9)           54.53 -0.000434    0.02     54.55   
    30. A(B   4,B   2,B   9)           47.86 -0.000479    0.50     48.36   
    31. A(B   4,B   2,B   8)           67.44 -0.000476   -0.24     67.20   
    32. A(B   7,B   3,B  10)           97.63 -0.001648   -0.11     97.52   
    33. A(B   2,B   4,B   7)          137.91  0.000552    0.43    138.34   
    34. A(B   9,B   4,B  11)           17.85 -0.000356   -0.97     16.88   
    35. A(B   2,B   4,B  11)           39.85 -0.000254   -0.92     38.93   
    36. A(B   6,B   4,B  11)           63.36 -0.000313   -0.38     62.98   
    37. A(B   6,B   4,B   9)           45.51  0.000047    0.60     46.11   
    38. A(B   2,B   4,B   9)           24.73  0.000040    0.04     24.77   
    39. A(B   7,B   4,B  10)           57.56  0.000472   -0.23     57.32   
    40. A(B   6,B   4,B   7)          109.67  0.000642   -0.12    109.55   
    41. A(B  10,B   4,B  11)          116.28 -0.000332   -0.96    115.32   
    42. A(B   9,B   4,B  10)           98.45  0.000031    0.24     98.68   
    43. A(B   7,B   4,B  11)          164.11 -0.000103   -0.28    163.83   
    44. A(B   7,B   4,B   9)          151.78  0.000427    0.57    152.35   
    45. A(B   2,B   4,B   6)           29.82 -0.000230    0.79     30.60   
    46. A(B   2,B   4,B  10)           80.36  0.000082    0.54     80.90   
    47. A(B   6,B   4,B  10)           53.07  0.000045   -0.06     53.01   
    48. A(B   0,B   5,B  10)          118.51 -0.000899   -0.78    117.73   
    49. A(B   4,B   6,B   9)           51.26 -0.000310    0.35     51.61   
    50. A(B   1,B   6,B   4)           66.15 -0.001598    1.23     67.38   
    51. A(B   1,B   6,B   8)          131.36 -0.002160    1.55    132.90   
    52. A(B   4,B   6,B   8)           69.19 -0.000575    0.16     69.35   
    53. A(B   8,B   6,B   9)           31.14 -0.000312   -0.65     30.49   
    54. A(B   1,B   6,B   9)          116.73 -0.001806    1.37    118.10   
    55. A(B   4,B   7,B  10)           88.18 -0.000447    0.32     88.50   
    56. A(B   3,B   7,B  10)           41.34  0.001408    0.03     41.37   
    57. A(B   3,B   7,B   4)          129.32  0.000956    0.18    129.49   
    58. A(B   1,B   8,B   6)           25.81  0.001195   -0.69     25.12   
    59. A(B   6,B   8,B   9)          117.59 -0.000043    1.49    119.08   
    60. A(B   2,B   8,B   9)           59.42  0.000770   -0.21     59.22   
    61. A(B   1,B   8,B   9)          107.57 -0.000768    1.62    109.20   
    62. A(B   1,B   8,B   2)           81.16 -0.000041    1.23     82.40   
    63. A(B   2,B   8,B   6)           70.74 -0.000646    1.74     72.47   
    64. A(B   2,B   9,B  11)          120.17  0.000382   -1.48    118.69   
    65. A(B   2,B   9,B   4)          107.41  0.000439   -0.54    106.87   
    66. A(B   8,B   9,B  11)          113.10  0.000152   -1.18    111.92   
    67. A(B   4,B   9,B   8)           97.45  0.000273   -0.88     96.57   
    68. A(B   2,B   9,B   6)           45.69 -0.000489    0.95     46.64   
    69. A(B   4,B   9,B  11)           17.57 -0.000141   -0.83     16.74   
    70. A(B   6,B   9,B   8)           31.27  0.000355   -0.84     30.43   
    71. A(B   6,B   9,B  11)          100.79  0.000119   -1.80     98.99   
    72. A(B   4,B   9,B   6)           83.23  0.000263   -0.96     82.27   
    73. A(B   2,B   9,B   8)           66.05 -0.000336    0.19     66.23   
    74. A(B   3,B  10,B   4)           75.21  0.000216   -0.12     75.09   
    75. A(B   0,B  10,B   5)           19.84  0.000463    0.24     20.08   
    76. A(B   0,B  10,B   7)          112.27 -0.000144   -0.59    111.68   
    77. A(B   0,B  10,B   4)           78.86 -0.000116   -0.55     78.31   
    78. A(B   0,B  10,B   3)          149.40  0.000076   -0.57    148.83   
    79. A(B   5,B  10,B   7)          130.81  0.000294   -0.38    130.43   
    80. A(B   4,B  10,B   5)           98.34  0.000344   -0.35     97.98   
    81. A(B   3,B  10,B   5)          159.21  0.000107   -0.51    158.70   
    82. A(B   4,B  10,B   7)           34.26 -0.000026   -0.08     34.18   
    83. A(B   3,B  10,B   7)           41.03  0.000241    0.08     41.11   
    84. A(B   4,B  11,B   9)          144.58  0.000497    1.80    146.38   
    85. D(B   8,B   2,B   0,B   5)    -33.92  0.000657    0.32    -33.60   
    86. D(B   4,B   2,B   0,B   5)     36.66  0.000242   -0.32     36.34   
    87. D(B   8,B   2,B   0,B  10)    -49.45  0.000364    0.15    -49.29   
    88. D(B   9,B   2,B   0,B  10)      5.15  0.000021   -2.50      2.64   
    89. D(B   9,B   2,B   0,B   5)     20.67  0.000314   -2.33     18.34   
    90. D(B   7,B   4,B   2,B   8)     75.74  0.000139    0.17     75.90   
    91. D(B   9,B   4,B   2,B   0)   -169.16  0.000119    1.54   -167.62   
    92. D(B   7,B   4,B   2,B   0)    -31.56  0.000051    2.23    -29.32   
    93. D(B  10,B   4,B   2,B   8)     74.59 -0.000058   -1.21     73.38   
    94. D(B  10,B   4,B   2,B   9)    136.45 -0.000266   -0.67    135.78   
    95. D(B   7,B   4,B   2,B   9)    137.60 -0.000069    0.70    138.30   
    96. D(B   9,B   4,B   2,B   8)    -61.86  0.000208   -0.53    -62.40   
    97. D(B  10,B   4,B   2,B   0)    -32.70 -0.000147    0.86    -31.84   
    98. D(B  10,B   5,B   0,B   2)    -23.75 -0.000246   -0.06    -23.80   
    99. D(B   1,B   6,B   4,B  11)    169.53  0.000445   -0.34    169.19   
   100. D(B   1,B   6,B   4,B   7)    -26.02  0.000090    0.11    -25.90   
   101. D(B   8,B   6,B   4,B  10)    145.24 -0.001073    0.44    145.68   
   102. D(B   9,B   6,B   1,B   8)     33.55 -0.001041   -0.70     32.85   
   103. D(B   8,B   6,B   4,B   9)    -29.66  0.000098    0.70    -28.96   
   104. D(B   1,B   6,B   4,B   9)    170.14  0.000584   -0.41    169.73   
   105. D(B   1,B   6,B   4,B   2)    137.97  0.000789   -0.25    137.72   
   106. D(B   8,B   6,B   4,B   7)    134.18 -0.000396    1.22    135.41   
   107. D(B   1,B   6,B   4,B  10)    -14.96 -0.000587   -0.67    -15.63   
   108. D(B   4,B   6,B   1,B   8)     24.95 -0.000358   -0.68     24.27   
   109. D(B   3,B   7,B   4,B  11)     76.00  0.000832   -1.89     74.11   
   110. D(B   3,B   7,B   4,B   6)     14.93 -0.000539   -1.23     13.70   
   111. D(B   3,B   7,B   4,B   9)     39.74  0.000638   -2.85     36.90   
   112. D(B   3,B   7,B   4,B   2)      3.12 -0.000073   -2.24      0.89   
   113. D(B   4,B   7,B   3,B  10)     -6.77 -0.000038    0.69     -6.08   
   114. D(B   3,B   7,B   4,B  10)      4.47  0.000151   -0.58      3.88   
   115. D(B  10,B   7,B   4,B   9)     35.28  0.000488   -2.26     33.02   
   116. D(B  10,B   7,B   4,B  11)     71.53  0.000681   -1.31     70.22   
   117. D(B   2,B   8,B   6,B   4)     86.04  0.000611    0.11     86.14   
   118. D(B   9,B   8,B   6,B   1)     72.65 -0.000463   -0.83     71.83   
   119. D(B   2,B   8,B   6,B   9)     37.76  0.000504    0.24     38.00   
   120. D(B   1,B   8,B   6,B   4)    -24.38  0.000570    0.70    -23.68   
   121. D(B   1,B   8,B   6,B   9)    -72.65  0.000463    0.83    -71.83   
   122. D(B   6,B   8,B   2,B   4)    -87.52 -0.000141    0.29    -87.22   
   123. D(B   6,B   8,B   2,B   9)   -140.93  0.000177   -0.42   -141.34   
   124. D(B   6,B   8,B   2,B   0)      8.61 -0.000121    0.16      8.77   
   125. D(B   1,B   8,B   2,B   9)   -116.53  0.001293   -1.30   -117.83   
   126. D(B   2,B   8,B   6,B   1)    110.41  0.000041   -0.59    109.83   
   127. D(B   1,B   8,B   2,B   0)     33.00  0.000995   -0.72     32.28   
   128. D(B   9,B   8,B   1,B   6)   -117.46 -0.000703   -1.03   -118.49   
   129. D(B   1,B   8,B   2,B   4)    -63.12  0.000975   -0.59    -63.71   
   130. D(B   2,B   8,B   1,B   6)    -63.56  0.000472   -1.40    -64.96   
   131. D(B   8,B   9,B   4,B   2)     67.17 -0.000270   -0.12     67.05   
   132. D(B   8,B   9,B   4,B   6)     27.92  0.000395   -0.90     27.01   
   133. D(B   8,B   9,B   4,B  11)   -153.85 -0.000039   -0.36   -154.20   
   134. D(B   8,B   9,B   4,B   7)     -5.72 -0.001115    1.02     -4.70   
   135. D(B  11,B   9,B   4,B   2)   -138.99 -0.000232    0.24   -138.75   
   136. D(B  11,B   9,B   4,B   6)   -178.24  0.000434   -0.55   -178.78   
   137. D(B  11,B   9,B   4,B  10)    177.64 -0.000514   -0.50    177.14   
   138. D(B  11,B   9,B   4,B   7)    148.12 -0.001077    1.38    149.50   
   139. D(B   8,B   9,B   2,B   4)    -90.54 -0.000012    0.90    -89.64   
   140. D(B   8,B   9,B   2,B   0)    -69.34  0.000037    3.46    -65.88   
   141. D(B  11,B   9,B   2,B   0)     34.44 -0.000065    2.39     36.83   
   142. D(B   8,B   9,B   4,B  10)     23.80 -0.000552   -0.86     22.94   
   143. D(B   4,B   9,B   2,B   8)     90.54  0.000012   -0.90     89.64   
   144. D(B  11,B   9,B   2,B   8)    103.78 -0.000102   -1.07    102.71   
   145. D(B   4,B   9,B   2,B   0)     21.20  0.000050    2.56     23.76   
   146. D(B   4,B   9,B   6,B   1)    -10.10  0.000886   -0.57    -10.67   
   147. D(B   2,B   9,B   8,B   1)     68.02  0.000981    0.09     68.11   
   148. D(B  11,B   9,B   8,B   2)   -114.10 -0.000295    0.39   -113.72   
   149. D(B  11,B   9,B   8,B   1)    -46.08  0.000687    0.48    -45.60   
   150. D(B   4,B   9,B   8,B   6)    -63.61 -0.000389    1.01    -62.61   
   151. D(B   4,B   9,B   8,B   2)   -105.79 -0.000362    0.08   -105.70   
   152. D(B   4,B   9,B   8,B   1)    -37.76  0.000620    0.18    -37.59   
   153. D(B   8,B   9,B   6,B   4)   -116.56  0.000252   -0.64   -117.20   
   154. D(B   8,B   9,B   6,B   1)   -126.66  0.001138   -1.21   -127.87   
   155. D(B  11,B   9,B   6,B   4)      0.54  0.000129   -0.26      0.28   
   156. D(B  11,B   9,B   6,B   8)    117.10 -0.000123    0.38    117.48   
   157. D(B  11,B   9,B   6,B   1)     -9.56  0.001015   -0.84    -10.39   
   158. D(B  11,B   9,B   8,B   6)    -71.93 -0.000322    1.31    -70.62   
   159. D(B   4,B   9,B   6,B   8)    116.56 -0.000252    0.64    117.20   
   160. D(B  11,B   9,B   2,B   4)     13.25 -0.000115   -0.17     13.07   
   161. D(B   0,B  10,B   7,B   3)   -161.14 -0.000032    0.23   -160.91   
   162. D(B   5,B  10,B   7,B   4)     21.98  0.000202    0.96     22.94   
   163. D(B   5,B  10,B   7,B   3)   -152.78  0.000160    0.41   -152.37   
   164. D(B   4,B  10,B   7,B   3)   -174.77 -0.000041   -0.55   -175.32   
   165. D(B   3,B  10,B   7,B   4)    174.77  0.000041    0.55    175.32   
   166. D(B   7,B  10,B   5,B   0)    -23.35 -0.000036   -0.31    -23.67   
   167. D(B   4,B  10,B   5,B   0)    -11.05  0.000076    0.29    -10.76   
   168. D(B   7,B  10,B   4,B   2)    179.09 -0.000142   -0.99    178.10   
   169. D(B   7,B  10,B   4,B   6)   -167.65 -0.000875   -0.82   -168.47   
   170. D(B   7,B  10,B   4,B  11)   -163.17  0.000128   -1.29   -164.46   
   171. D(B   7,B  10,B   4,B   9)   -163.97 -0.000029   -0.88   -164.85   
   172. D(B   3,B  10,B   4,B   2)    175.54 -0.000128   -0.61    174.93   
   173. D(B   3,B  10,B   4,B   6)   -171.20 -0.000861   -0.44   -171.64   
   174. D(B   3,B  10,B   4,B  11)   -166.72  0.000143   -0.91   -167.63   
   175. D(B   3,B  10,B   4,B   9)   -167.52 -0.000015   -0.50   -168.02   
   176. D(B   3,B  10,B   4,B   7)     -3.55  0.000014    0.38     -3.17   
   177. D(B   0,B  10,B   3,B   7)     35.99  0.000069    0.20     36.19   
   178. D(B   3,B  10,B   5,B   0)    -81.12 -0.001417   -0.10    -81.22   
   179. D(B   5,B  10,B   3,B   7)     77.20  0.001500    0.00     77.21   
   180. D(B   4,B  10,B   3,B   7)      3.04 -0.000029   -0.31      2.73   
   181. D(B   7,B  10,B   0,B   5)    161.08  0.000079   -0.25    160.84   
   182. D(B   7,B  10,B   0,B   2)    -37.55 -0.000062   -0.07    -37.62   
   183. D(B   4,B  10,B   0,B   5)    168.85  0.000082    0.33    169.18   
   184. D(B   4,B  10,B   0,B   2)    -29.78 -0.000059    0.51    -29.28   
   185. D(B   3,B  10,B   0,B   5)    136.44 -0.000064   -0.32    136.12   
   186. D(B   0,B  10,B   7,B   4)     13.63  0.000009    0.78     14.40   
   187. D(B   3,B  10,B   0,B   2)    -62.19 -0.000205   -0.14    -62.33   
   188. D(B   4,B  11,B   9,B   6)     -1.78 -0.000440    0.68     -1.10   
   189. D(B   4,B  11,B   9,B   2)    -46.41  0.000192   -0.31    -46.71   
   190. D(B   4,B  11,B   9,B   8)     28.37 -0.000027   -0.33     28.04   
   191. D(B   9,B  11,B   4,B   2)     25.37  0.000059    0.65     26.02   
   192. D(B   9,B  11,B   4,B   6)      1.41  0.000351   -0.51      0.89   
   193. D(B   9,B  11,B   4,B  10)     -2.60 -0.000559   -0.10     -2.70   
   194. D(B   9,B  11,B   4,B   7)    -65.82 -0.001280    7.64    -58.18   
    ----------------------------------------------------------------------------

Geometry step timings:
Preparation and reading OPT file:      0.000 s ( 0.328 %)
Internal coordinates            :      0.000 s ( 0.541 %)
B/P matrices and projection     :      0.003 s (25.092 %)
Hessian update/contruction      :      0.003 s (23.944 %)
Making the step                 :      0.004 s (34.148 %)
Converting the step to Cartesian:      0.000 s ( 2.715 %)
Storing new data                :      0.000 s ( 0.591 %)
Checking convergence            :      0.000 s ( 0.828 %)
Final printing                  :      0.001 s (11.812 %)
Total time                      :      0.012 s

Time for energy+gradient        :      0.075 s
Time for complete geometry iter :      0.089 s




    ----------------------------------------------------------------------------
                                  WARNING !!!
       The optimization did not converge but reached the maximum number of
       optimization cycles.
       Please check your results very carefully.
    ----------------------------------------------------------------------------



--------------------------------
SUGGESTED CITATIONS FOR THIS RUN
--------------------------------

Below you find a list of papers that are relevant to this ORCA run
We neither can nor want to force you to cite these papers, but we appreciate if you do
You receive ORCA, which is the product of decades of hard work by many enthusiastic individuals, for free
The only thing we kindly ask in return is that you cite our papers,
We deeply appreciate it, if you show your appreciation for ORCA by not just citing the generic ORCA reference.

Please note that relegating all ORCA citations to the supporting information does *not* help us.
SI sections are not indexed - citations you put there will not count into any citation statistics
But we need these citations in order to attract the funding resources that allow us to do what we are doing

Therefore, if you are a happy ORCA user, please consider citing a few of the papers listed below in the main body of your paper

In addition to the list printed below, the program has created the file random_d1.70_002_m3.bibtex that contains the list in bibtex format
You can import this file easily into all common literature databanks and citation aid programs

It goes without saying that in many instances, there are alternative algorithms to achieve similar
results as the ones you have gotten from ORCA. It is, of course, also the case that in some instances
ORCA just re-implements algorithms worked out by others. We are fully aware of that and we are also
fully appreciative of our colleagues work. Hence this citation list should not be read as indicating
that the listed papers, which are focused on our own work, are the only ones worth citing. It simply
meant to make it easier for users to cite ORCA specific papers. It is not a substitute for doing your
own literature research and citing the relevant literature in a scientifically appropriate manner.

List of essential papers. We consider these as the minimum necessary citations

  1. Bannwarth, C.; Ehlert, S.; Grimme, S.
     GFN2-xTB—An Accurate and Broadly Parametrized Self-Consistent Tight-Binding Quantum Chemical Method with Multipole Electrostatics and Density-Dependent Dispersion Contributions
     J. Chem. Theory Comput. 2019 15(3), 1652-1671
     doi.org/10.1021/acs.jctc.8b01176
  2. Neese, F.
     Software update: the ORCA program system, version 6.0
     WIRES Comput. Molec. Sci. 2025 15(1), e70019
     doi.org/10.1002/wcms.70019

List of papers to cite with high priority. The work reported in these papers was absolutely
necessary for this run to complete.
Our perspective: the developers of density functionals and basis sets usually get cited in chemistry papers
Good! But without the algorithms to do something with them, the functionals or basis sets would not do anything.
Hence, in our opinion, the algorithm design and method developments papers are equally worthy of getting cited

  1. Bannwarth, C.; Caldeweyher, E.; Ehlert, S.; Hansen, A.; Pracht, P.; Seibert, J.; Spicher, S.; Grimme, S.
     Extended tight-binding quantum chemistry methods
     WIRES Comput. Molec. Sci. 2020 11(2), e1493
     doi.org/10.1002/wcms.1493

List of suggested additional citations. These are papers that are important in the 'surrounding' of 
of this run, or papers that preceded the highly important papers. If you like your results we are grateful for a citation.

  1. Neese, F.
     The ORCA program system
     WIRES Comput. Molec. Sci. 2012 2(1), 73-78
     doi.org/10.1002/wcms.81
  2. Neese, F.
     Software update: the ORCA program system, version 4.0
     WIRES Comput. Molec. Sci. 2018 8(1), 1-6
     doi.org/10.1002/wcms.1327
  3. Neese, F.; Wennmohs, F.; Becker, U.; Riplinger, C.
     The ORCA quantum chemistry program package
     J. Chem. Phys. 2020 152(22), 224108
     doi.org/10.1063/5.0004608
  4. Neese, F.
     Software update: The ORCA program system—Version 5.0
     WIRES Comput. Molec. Sci. 2022 12(1), e1606
     doi.org/10.1002/wcms.1606

List of optional additional citations

  1. Neese, F.
     Approximate second-order SCF convergence for spin unrestricted wavefunctions
     Chem. Phys. Lett. 2000 325(1-3), 93-98
     doi.org/10.1016/s0009-2614(00)00662-x

Timings for individual modules:

Sum of individual times          ...        3.607 sec (=   0.060 min)
Geometry relaxation              ...        0.732 sec (=   0.012 min)  20.3 %
XTB module                       ...        2.875 sec (=   0.048 min)  79.7 %
                             ****ORCA TERMINATED NORMALLY****
TOTAL RUN TIME: 0 days 0 hours 0 minutes 4 seconds 155 msec
