
                                 *****************
                                 * O   R   C   A *
                                 *****************

                                            #,                                       
                                            ###                                      
                                            ####                                     
                                            #####                                    
                                            ######                                   
                                           ########,                                 
                                     ,,################,,,,,                         
                               ,,#################################,,                 
                          ,,##########################################,,             
                       ,#########################################, ''#####,          
                    ,#############################################,,   '####,        
                  ,##################################################,,,,####,       
                ,###########''''           ''''###############################       
              ,#####''   ,,,,##########,,,,          '''####'''          '####       
            ,##' ,,,,###########################,,,                        '##       
           ' ,,###''''                  '''############,,,                           
         ,,##''                                '''############,,,,        ,,,,,,###''
      ,#''                                            '''#######################'''  
     '                                                          ''''####''''         
             ,#######,   #######,   ,#######,      ##                                
            ,#'     '#,  ##    ##  ,#'     '#,    #''#        ,####,    ,#,          
            ##       ##  ##   ,#'  ##            #'  '#       #'       ,# #          
            ##       ##  #######   ##           ,######,      #####,      #          
            '#,     ,#'  ##    ##  '#,     ,#' ,#      #,     #,   #      #          
             '#######'   ##     ##  '#######'  #'      '#     '####' #    #          



                #########################################################
                #                        -***-                          #
                #          Department of theory and spectroscopy        #
                #                                                       #
                #                      Frank Neese                      #
                #                                                       #
                #     Directorship, Architecture, Infrastructure        #
                #                    SHARK, DRIVERS                     #
                #        Core code/Algorithms in most modules           #
                #                                                       #
                #        Max Planck Institute fuer Kohlenforschung      #
                #                Kaiser Wilhelm Platz 1                 #
                #                 D-45470 Muelheim/Ruhr                 #
                #                      Germany                          #
                #                                                       #
                #                  All rights reserved                  #
                #                        -***-                          #
                #########################################################


                         Program Version 6.1.1  -  RELEASE   -
                                (GIT: $487d211c$)
                          ($2025-11-21 10:33:24 +0100$)
                                                                         
                                  - NO-DMRG VERSION -                    
                                                                         


 With contributions from (in alphabetic order):
[Max-Planck-Institut fuer Kohlenforschung]                               
  Daniel Aravena         : Magnetic Suceptibility                        
  Michael Atanasov       : Ab Initio Ligand Field Theory (pilot matlab implementation)
  Alexander A. Auer      : GIAO ZORA, VPT2 properties, NMR spectrum      
  Ute Becker             : All parallelization in ORCA, NUMFREQ, NUMCALC 
  Giovanni Bistoni       : ED, misc. LED, open-shell LED, HFLD           
  Dmytro Bykov           : pre 5.0 version of the SCF Hessian            
  Marcos Casanova-Páez   : Triplet and SCS-CIS(D). UHF-(DLPNO)-IP/EA/STEOM-CCSD. UHF-CVS-IP/STEOM-CCSD   
  Vijay G. Chilkuri      : MRCI spin determinant printing, contributions to CSF-ICE 
  Pauline Colinet        : FMM embedding                                 
  Dipayan Datta          : RHF DLPNO-CCSD density                        
  Achintya Kumar Dutta   : EOM-CC, STEOM-CC                              
  Nicolas Foglia         : Exact transition moments, OPA infrastructure, MCD improvements    
  Dmitry Ganyushin       : Spin-Orbit,Spin-Spin,Magnetic field MRCI      
  Miquel Garcia-Rates    : C-PCM and meta-GGA Hessian, CCSD/C-PCM, Gaussian charge scheme 
  Tiago L. C. Gouveia    : GS-ROHF, GS-ROCIS                             
  Yang Guo               : DLPNO-NEVPT2, F12-NEVPT2, CIM, IAO-localization        
  Andreas Hansen         : Spin unrestricted coupled pair/coupled cluster methods 
  Ingolf Harden          : AUTO-CI MPn and infrastructure                
  Benjamin Helmich-Paris : MC-RPA, TRAH-(SCF,CASSCF), AVAS, COSX integrals, SCF dyn. polar., MC-PDFT, srDFT 
  Lee Huntington         : MR-EOM, pCC                                   
  Robert Izsak           : Overlap fitted RIJCOSX, COSX-SCS-MP3, EOM     
  Riya Kayal             : Wick's Theorem for AUTO-CI, AUTO-CI UHF-CCSDT 
  Emily Kempfer          : AUTO-CI RHF CISDT and CCSDT, approximate NEVPT4
  Christian Kollmar      : KDIIS, OOCD, Brueckner-CCSD(T), CCSD density, CASPT2, CASPT2-K, improved NEVPT2 
  Axel Koslowski         : Symmetry handling                             
  Simone Kossmann        : meta-GGA functionals, TD-DFT gradient, OOMP2, (MP2 Hessian; deprecated post 5.0) 
  Lucas Lang             : DCDCAS, Hyperfine gauge corrections, ICE-SOC+SSC
  Marvin Lechner         : AUTO-CI (C++ implementation), FIC-MRCC        
  Spencer Leger          : CASSCF response                               
  Dagmar Lenk            : GEPOL surface, SMD, ORCA-2-JSON               
  Dimitrios Liakos       : Extrapolation schemes; Compound Job, Property file
  Dimitrios Manganas     : Further ROCIS development; embedding schemes. LFT, Crystal Embedding 
  Dimitrios Pantazis     : SARC Basis sets                               
  Anastasios Papadopoulos: AUTO-CI, single reference methods and gradients 
  Taras Petrenko         : pre 6.0 DFT Hessian and TD-DFT gradient,  ECA, NRVS 
  Petra Pikulova         : Analytic Raman intensities                    
  Peter Pinski           : DLPNO-MP2, DLPNO-MP2 Gradient                 
  Shashank Vittal Rao    : ES-AILFT, MagRelax                            
  Christoph Reimann      : Effective Core Potentials                     
  Marius Retegan         : Local ZFS, SOC                                
  Christoph Riplinger    : Optimizer, TS searches, QM/MM, DLPNO-CCSD(T), (RO)-DLPNO pert. Triples 
  Michael Roemelt        : Original ROCIS implementation, recursive CI coupling coefficients
  Masaaki Saitow         : Open-shell DLPNO-CCSD energy and density      
  Barbara Sandhoefer     : DKH picture change effects                    
  Yorick L. A. Schmerwitz: GMF and freeze-and-release deltaSCF, NEB S-IDPP initial path                    
  Kantharuban Sivalingam : CASSCF convergence/infrastructure, NEVPT2, NEVPT3, NEVPT4(SD), FIC-MRCI and CEPA variants
  Bernardo de Souza      : ESD, SOC TD-DFT                               
  Georgi L. Stoychev     : AutoAux, RI-MP2 NMR, DLPNO-MP2 response, X2C  
  Van Anh Tran           : RI-MP2 g-tensors                              
  Willem Van den Heuvel  : Paramagnetic NMR                              
  Zikuan Wang            : NOTCH, Electric field optimization            
  Frank Wennmohs         : Technical directorship and infrastructure     
  Hang Xu                : AUTO-CI-Response properties                   
                                                                         
[FACCTs GmbH]                                                            
  Markus Bursch, Nicolas Foglia, Miquel Garcia-Rates, Ingolf Harden, Hagen Neugebauer, Anastasios Papadopoulos, 
  Christoph Riplinger, Bernardo de Souza, Georgi L. Stoychev                                                    
                                                                 
  APM, various basis sets, CI-OPT, improved COSX, DLPNO-Multilevel,           
  DOCKER, DRACO, updates on ESD, Fragmentator, GOAT, IRC, LR-CPCM, L-BFGS, MBIS, meta-GGA TD-DFT gradient, ML-optimized integration grids, 
  MM, NACMEs, nearIR, NEB, NEB-TS, NL-DFT gradient (VV10), 2- and 3-layer-ONIOM, interface openCOSMO-RS, QMMM,   
  Crystal-QMMM, RESP, rigid body optimization, SF, symmetry and pop. for TD-DFT, various functionals, SOLVATOR                                   
                                                                         
[Other institutions]                                                     
  V. Asgeirsson          : NEB                                           
  Christoph Bannwarth    : sTDA-DFT, sTD-DFT, PBEh-3c, B97-3c, D3        
  Giovanni Bistoni       : ETS/NOCV, ADLD/ADEX, COVALED                  
  Martin Brehm           : Molecular dynamics                            
  Ronald Cardenas        : ETS/NOCV                                      
  Martina Colucci        : COVALED                                       
  Sebastian Ehlert       : rSCAN, r2SCAN, r2SCAN-3c, D4, dhf basis sets  
  Marvin Friede          : D4 for Fr, Ra, Ac-Lr                          
  Lars Goerigk           : TD-DFT with DH, B97 family of functionals     
  Stefan Grimme          : VdW corrections, initial TS optimization, DFT functionals, gCP, sTDA/sTD-DF 
  Waldemar Hujo          : DFT-NL                                        
  H. Jonsson             : NEB                                           
  Holger Kruse           : gCP                                           
  Marcel Mueller         : wB97X-3c, vDZP basis set                      
  Hagen Neugebauer       : wr2SCAN, Native XTB                           
  Gianluca Regni         : ADLD/ADEX                                     
  Tobias Risthaus        : pre 6.0 range-separated hybrid DFT and stability analysis
  Lukas Wittmann         : regularized MP2, r2SCAN double-hybrids, wr2SCAN        
                                                                         
We gratefully acknowledge several colleagues who have allowed us to      
interface, adapt or use parts of their codes:                            
  Ed Valeev, F. Pavosevic, A. Kumar             : LibInt (2-el integral package), F12 methods 
  Garnet Chan, S. Sharma, J. Yang, R. Olivares  : DMRG                   
  Ulf Ekstrom                                   : XCFun DFT Library      
  Mihaly Kallay                                 : mrcc  (arbitrary order and MRCC methods)
  Frank Weinhold                                : gennbo (NPA and NBO analysis)           
  Simon Mueller                                 : openCOSMO-RS                            
  Christopher J. Cramer and Donald G. Truhlar   : smd solvation model                     
  S Lehtola, MJT Oliveira, MAL Marques          : LibXC Library                           
  Liviu Ungur et al                             : ANISO software                          


 Your calculation uses the libint2 library for the computation of 2-el integrals
 For citations please refer to: http://libint.valeyev.net

 Your ORCA version has been built with support for libXC version: 7.0.0
 For citations please refer to: https://libxc.gitlab.io

 This ORCA versions uses:
   CBLAS   interface :  Fast vector & matrix operations
   LAPACKE interface :  Fast linear algebra routines
   SCALAPACK package :  Parallel linear algebra routines
   Shared memory     :  Shared parallel matrices
   BLAS/LAPACK       :  OpenBLAS 0.3.29  USE64BITINT DYNAMIC_ARCH NO_AFFINITY Zen SINGLE_THREADED
        Core in use  :  Zen
   Copyright (c) 2011-2014, The OpenBLAS Project


  ***********************************
  * Starting time: Fri Apr 17 12:14:35 2026
  * Host name:     vmi3233575
  * Process ID:    337002
  * Working dir.:  /root/orca_b12_vps_pack/jobs/01_xtb/mult_3
  ***********************************

NOTE: MaxCore=500 MB was set to SCF,MP2,MDCI,CIPSI,MRCI,RASCI and CIS
      => If you want to overwrite this, your respective input block should be placed after the MaxCore statement


***************************************
The coordinates will be read from file: ../../../starts/random_d1.50_008.xyz
***************************************


Your calculation utilizes the semiempirical GFN2-xTB method
Please cite in your paper:
Bannwarth, C.; Ehlert S.; Grimme, S. J. Chem. Theory Comput. 2019, 15, 1652.
   

================================================================================

================================================================================
                                        WARNINGS
                       Please study these warnings very carefully!
================================================================================


WARNING: Geometry Optimization
  ===> : Switching off AutoStart
         For restart on a previous wavefunction, please use MOREAD

WARNING: Found dipole moment calculation with XTB calculation
  ===> : Switching off dipole moment calculation

Environment variable XTBEXE for xtb has been set!

================================================================================
                                       INPUT FILE
================================================================================
NAME = random_d1.50_008_m3.inp
|  1> ! GFN2-xTB TightSCF TightOpt
|  2> 
|  3> %pal
|  4>   nprocs 1
|  5> end
|  6> 
|  7> %maxcore 500
|  8> 
|  9> * xyzfile 0 3 ../../../starts/random_d1.50_008.xyz
| 10> 
| 11>                          ****END OF INPUT****
================================================================================

                       *****************************
                       * Geometry Optimization Run *
                       *****************************

Geometry optimization settings:
Update method            Update   .... BFGS
Choice of coordinates    CoordSys .... (2022) Redundant Internals
Initial Hessian          InHess   .... Almloef's Model
Max. no of cycles        MaxIter  .... 50

Convergence Tolerances:
Energy Change            TolE     ....  1.0000e-06 Eh
Max. Gradient            TolMAXG  ....  1.0000e-04 Eh/bohr
RMS Gradient             TolRMSG  ....  3.0000e-05 Eh/bohr
Max. Displacement        TolMAXD  ....  1.0000e-03 bohr
RMS Displacement         TolRMSD  ....  6.0000e-04 bohr
Strict Convergence                .... False

------------------------------------------------------------------------------
                        ORCA OPTIMIZATION COORDINATE SETUP
------------------------------------------------------------------------------

The optimization will be done in redundant internal coordinates (2022)
Making redundant internal coordinates   ...  (2022 redundants) done
Evaluating the initial hessian          ...  (Almloef) done
Evaluating the coordinates              ...  done
Calculating the B-matrix                .... done
Calculating the G-matrix                .... done
The number of degrees of freedom        ....   97

    -----------------------------------------------------------------
                    Redundant Internal Coordinates


    -----------------------------------------------------------------
         Definition                    Initial Value    Approx d2E/dq
    -----------------------------------------------------------------
      1. B(B   5,B   3)                  1.7580         0.216859   
      2. B(B   6,B   1)                  1.2427         1.440283   
      3. B(B   7,B   4)                  1.6296         0.347627   
      4. B(B   8,B   4)                  2.0835         0.065601   
      5. B(B   8,B   6)                  1.3557         0.950837   
      6. B(B   8,B   1)                  1.7295         0.240817   
      7. B(B   9,B   0)                  2.0328         0.079045   
      8. B(B   9,B   2)                  1.7947         0.189508   
      9. B(B  10,B   8)                  1.8351         0.163381   
     10. B(B  10,B   7)                  1.5737         0.426884   
     11. B(B  10,B   6)                  1.5241         0.512127   
     12. B(B  10,B   3)                  1.9461         0.108687   
     13. B(B  10,B   1)                  1.4367         0.706120   
     14. B(B  11,B   6)                  1.4403         0.696754   
     15. B(B  11,B   0)                  1.1527         2.004304   
     16. A(B   9,B   0,B  11)           89.3784         0.383612   
     17. A(B   8,B   1,B  10)           70.1478         0.388367   
     18. A(B   6,B   1,B   8)           51.1291         0.440780   
     19. A(B   6,B   1,B  10)           68.9018         0.537761   
     20. A(B   5,B   3,B  10)          127.1621         0.280408   
     21. A(B   7,B   4,B   8)           71.6231         0.278984   
     22. A(B   1,B   6,B  10)           61.5751         0.506292   
     23. A(B   8,B   6,B  11)          124.9185         0.496272   
     24. A(B   1,B   6,B  11)          150.3185         0.536406   
     25. A(B  10,B   6,B  11)          110.9091         0.443047   
     26. A(B   1,B   6,B   8)           83.3384         0.569025   
     27. A(B   8,B   6,B  10)           78.9341         0.468859   
     28. A(B   4,B   7,B  10)          100.7732         0.379281   
     29. A(B   1,B   8,B   4)          120.9936         0.263836   
     30. A(B   1,B   8,B   6)           45.5324         0.409224   
     31. A(B   4,B   8,B   6)           88.5842         0.327574   
     32. A(B   6,B   8,B  10)           54.5962         0.382305   
     33. A(B   4,B   8,B  10)           77.7852         0.249139   
     34. A(B   1,B   8,B  10)           47.4222         0.303945   
     35. A(B   0,B   9,B   2)           82.2427         0.261744   
     36. A(B   3,B  10,B   6)           88.5333         0.321503   
     37. A(B   1,B  10,B   6)           49.5231         0.444118   
     38. A(B   7,B  10,B   8)           80.1466         0.333681   
     39. A(B   6,B  10,B   8)           46.4698         0.343974   
     40. A(B   3,B  10,B   8)          126.1061         0.268525   
     41. A(B   1,B  10,B   8)           62.4300         0.363202   
     42. A(B   1,B  10,B   3)          114.6489         0.339036   
     43. A(B   6,B  10,B   7)          111.2457         0.405886   
     44. A(B   3,B  10,B   7)           95.5358         0.312117   
     45. A(B   1,B  10,B   7)          141.0053         0.429783   
     46. A(B   0,B  11,B   6)          141.3618         0.571153   
     47. D(B  11,B   6,B   1,B  10)     82.5236         0.122776   
     48. D(B  11,B   6,B   1,B   8)    163.5187         0.122776   
     49. D(B   8,B   6,B   1,B  10)    -80.9951         0.122776   
     50. D(B  10,B   6,B   1,B   8)     80.9951         0.122776   
     51. D(B  10,B   7,B   4,B   8)     42.0891         0.010000   
     52. D(B   6,B   8,B   1,B  10)     78.4319         0.010000   
     53. D(B   4,B   8,B   1,B   6)    -50.9473         0.010000   
     54. D(B  10,B   8,B   4,B   7)    -35.2919         0.010000   
     55. D(B   4,B   8,B   6,B   1)    138.2489         0.051757   
     56. D(B   4,B   8,B   1,B  10)     27.4846         0.010000   
     57. D(B  10,B   8,B   1,B   6)    -78.4319         0.010000   
     58. D(B   1,B   8,B   6,B  10)    -62.2587         0.051757   
     59. D(B   4,B   8,B   6,B  10)     75.9902         0.051757   
     60. D(B   6,B   8,B   4,B   7)    -89.3061         0.010000   
     61. D(B   1,B   8,B   6,B  11)   -170.1349         0.051757   
     62. D(B   4,B   8,B   6,B  11)    -31.8860         0.051757   
     63. D(B  10,B   8,B   6,B   1)     62.2587         0.051757   
     64. D(B   1,B   8,B   4,B   7)    -55.6392         0.010000   
     65. D(B   2,B   9,B   0,B  11)   -110.7758         0.010000   
     66. D(B   1,B  10,B   6,B   8)     88.3640         0.015081   
     67. D(B   8,B  10,B   3,B   5)     78.0214         0.010000   
     68. D(B   7,B  10,B   3,B   5)     -3.8085         0.010000   
     69. D(B   1,B  10,B   3,B   5)    150.8273         0.010000   
     70. D(B   8,B  10,B   1,B   6)     54.8405         0.027259   
     71. D(B   7,B  10,B   1,B   8)     17.8834         0.027259   
     72. D(B   6,B  10,B   3,B   5)    107.3964         0.010000   
     73. D(B   7,B  10,B   1,B   6)     72.7239         0.027259   
     74. D(B   3,B  10,B   8,B   4)    -54.4973         0.010000   
     75. D(B   6,B  10,B   1,B   8)    -54.8405         0.027259   
     76. D(B   1,B  10,B   6,B  11)   -148.2928         0.015081   
     77. D(B   3,B  10,B   1,B   8)   -119.4610         0.027259   
     78. D(B   1,B  10,B   8,B   4)   -156.1225         0.010000   
     79. D(B   8,B  10,B   7,B   4)    -47.1397         0.010000   
     80. D(B   3,B  10,B   1,B   6)    -64.6205         0.027259   
     81. D(B   6,B  10,B   7,B   4)    -11.9803         0.010000   
     82. D(B   3,B  10,B   7,B   4)     78.5979         0.010000   
     83. D(B   1,B  10,B   7,B   4)    -63.1783         0.010000   
     84. D(B   7,B  10,B   6,B   8)    -51.4947         0.015081   
     85. D(B   7,B  10,B   6,B   1)   -139.8587         0.015081   
     86. D(B   3,B  10,B   6,B  11)    -23.5212         0.015081   
     87. D(B   1,B  10,B   8,B   6)    -59.0660         0.010000   
     88. D(B   3,B  10,B   8,B   1)    101.6252         0.010000   
     89. D(B   3,B  10,B   6,B   8)   -146.8644         0.015081   
     90. D(B   3,B  10,B   8,B   6)     42.5592         0.010000   
     91. D(B   6,B  10,B   8,B   1)     59.0660         0.010000   
     92. D(B   6,B  10,B   8,B   4)    -97.0565         0.010000   
     93. D(B   3,B  10,B   6,B   1)    124.7716         0.015081   
     94. D(B   0,B  11,B   6,B  10)   -162.1817         0.022724   
     95. D(B   0,B  11,B   6,B   8)    -71.2581         0.022724   
     96. D(B   0,B  11,B   6,B   1)    128.8418         0.022724   
     97. D(B   6,B  11,B   0,B   9)    157.8978         0.194776   
    -----------------------------------------------------------------

Number of atoms                         .... 12
Number of degrees of freedom            .... 97


         *************************************************************
         *                GEOMETRY OPTIMIZATION CYCLE   1            *
         *************************************************************
---------------------------------
CARTESIAN COORDINATES (ANGSTROEM)
---------------------------------
  B    -1.133836    1.688911    0.313538
  B    -1.242142   -1.871332    0.994523
  B     1.101259    2.793107   -0.078250
  B    -0.424659   -0.742915   -1.503845
  B     1.423509    0.101707    0.782662
  B     0.731050    0.222689   -2.410860
  B    -0.903845   -0.680290    0.888819
  B     1.444723   -1.419866    0.199610
  B     0.013348   -1.021626    1.826985
  B     0.006882    2.096984   -1.318760
  B    -0.096273   -1.733154    0.138968
  B    -0.920016    0.565782    0.166610

----------------------------
CARTESIAN COORDINATES (A.U.)
----------------------------
  NO LB    ZA    FRAG    MASS        X           Y           Z
   0 B   5.0000    0    10.810   -2.142639    3.191580    0.592502
   1 B   5.0000    0    10.810   -2.347309   -3.536304    1.879376
   2 B   5.0000    0    10.810    2.081078    5.278207   -0.147872
   3 B   5.0000    0    10.810   -0.802490   -1.403905   -2.841855
   4 B   5.0000    0    10.810    2.690043    0.192199    1.479017
   5 B   5.0000    0    10.810    1.381484    0.420822   -4.555865
   6 B   5.0000    0    10.810   -1.708019   -1.285561    1.679625
   7 B   5.0000    0    10.810    2.730131   -2.683157    0.377209
   8 B   5.0000    0    10.810    0.025223   -1.930593    3.452501
   9 B   5.0000    0    10.810    0.013005    3.962726   -2.492094
  10 B   5.0000    0    10.810   -0.181929   -3.275186    0.262611
  11 B   5.0000    0    10.810   -1.738579    1.069172    0.314846

      -----------------------------------------------------------      
     |                   =====================                   |     
     |                           x T B                           |     
     |                   =====================                   |     
     |                         S. Grimme                         |     
     |          Mulliken Center for Theoretical Chemistry        |     
     |                    University of Bonn                     |     
      -----------------------------------------------------------      

   * xtb version 6.6.1 (unknown) compiled by 'builduser@buildhost' on 2023-08-07

   xtb is free software: you can redistribute it and/or modify it under
   the terms of the GNU Lesser General Public License as published by
   the Free Software Foundation, either version 3 of the License, or
   (at your option) any later version.
   
   xtb is distributed in the hope that it will be useful,
   but WITHOUT ANY WARRANTY; without even the implied warranty of
   MERCHANTABILITY or FITNESS FOR A PARTICULAR PURPOSE.  See the
   GNU Lesser General Public License for more details.
   
   Cite this work as:
   * C. Bannwarth, E. Caldeweyher, S. Ehlert, A. Hansen, P. Pracht,
     J. Seibert, S. Spicher, S. Grimme, WIREs Comput. Mol. Sci., 2020, 11,
     e01493. DOI: 10.1002/wcms.1493
   
   for GFN2-xTB:
   * C. Bannwarth, S. Ehlert and S. Grimme., J. Chem. Theory Comput., 2019,
     15, 1652-1671. DOI: 10.1021/acs.jctc.8b01176
   for GFN1-xTB:
   * S. Grimme, C. Bannwarth, P. Shushkov, J. Chem. Theory Comput., 2017,
     13, 1989-2009. DOI: 10.1021/acs.jctc.7b00118
   for GFN0-xTB:
   * P. Pracht, E. Caldeweyher, S. Ehlert, S. Grimme, ChemRxiv, 2019, preprint.
     DOI: 10.26434/chemrxiv.8326202.v1
   for GFN-FF:
   * S. Spicher and S. Grimme, Angew. Chem. Int. Ed., 2020, 59, 15665-15673.
     DOI: 10.1002/anie.202004239
   
   for ALPB and GBSA implicit solvation:
   * S. Ehlert, M. Stahn, S. Spicher, S. Grimme, J. Chem. Theory Comput.,
     2021, 17, 4250-4261. DOI: 10.1021/acs.jctc.1c00471
   
   for DFT-D4:
   * E. Caldeweyher, C. Bannwarth and S. Grimme, J. Chem. Phys., 2017,
     147, 034112. DOI: 10.1063/1.4993215
   * E. Caldeweyher, S. Ehlert, A. Hansen, H. Neugebauer, S. Spicher,
     C. Bannwarth and S. Grimme, J. Chem. Phys., 2019, 150, 154122.
     DOI: 10.1063/1.5090222
   * E. Caldeweyher, J.-M. Mewes, S. Ehlert and S. Grimme, Phys. Chem. Chem. Phys.
     2020, 22, 8499-8512. DOI: 10.1039/D0CP00502A
   
   for sTDA-xTB:
   * S. Grimme and C. Bannwarth, J. Chem. Phys., 2016, 145, 054103.
     DOI: 10.1063/1.4959605
   
   in the mass-spec context:
   * V. Asgeirsson, C. Bauer and S. Grimme, Chem. Sci., 2017, 8, 4879.
     DOI: 10.1039/c7sc00601b
   * J. Koopman and S. Grimme, ACS Omega 2019, 4, 12, 15120-15133.
     DOI: 10.1021/acsomega.9b02011
   
   for metadynamics refer to:
   * S. Grimme, J. Chem. Theory Comput., 2019, 155, 2847-2862
     DOI: 10.1021/acs.jctc.9b00143
   
   for SPH calculations refer to:
   * S. Spicher and S. Grimme, J. Chem. Theory Comput., 2021, 17, 1701-1714
     DOI: 10.1021/acs.jctc.0c01306
   
   with help from (in alphabetical order)
   P. Atkinson, C. Bannwarth, F. Bohle, G. Brandenburg, E. Caldeweyher
   M. Checinski, S. Dohm, S. Ehlert, S. Ehrlich, I. Gerasimov, C. Hölzer
   A. Katbashev, J. Koopman, C. Lavigne, S. Lehtola, F. März, M. Müller,
   F. Musil, H. Neugebauer, J. Pisarek, C. Plett, P. Pracht, F. Pultar,
   J. Seibert, P. Shushkov, S. Spicher, M. Stahn, M. Steiner, T. Strunk,
   J. Stückrath, T. Rose, and J. Unsleber
   
 * started run on 2026/04/17 at 12:14:35.455     

           -------------------------------------------------
          |                Calculation Setup                |
           -------------------------------------------------

          program call               : /usr/bin/xtb random_d1.50_008_m3_XTB.xyz --grad -c 0 -u 2 -P 1 --namespace random_d1.50_008_m3 --input random_d1.50_008_m3_XTB.input.tmp --acc 0.200000
          calculation namespace      : random_d1.50_008_m3
          coordinate file            : random_d1.50_008_m3_XTB.xyz
          omp threads                :                     1

   ID    Z sym.   atoms
    1    5 B      1-12

           -------------------------------------------------
          |                 G F N 2 - x T B                 |
           -------------------------------------------------

        Reference                      10.1021/acs.jctc.8b01176
      * Hamiltonian:
        H0-scaling (s, p, d)           1.850000    2.230000    2.230000
        zeta-weighting                 0.500000
      * Dispersion:
        s8                             2.700000
        a1                             0.520000
        a2                             5.000000
        s9                             5.000000
      * Repulsion:
        kExp                           1.500000    1.000000
        rExp                           1.000000
      * Coulomb:
        alpha                          2.000000
        third order                    shell-resolved
        anisotropic                    true
        a3                             3.000000
        a5                             4.000000
        cn-shift                       1.200000
        cn-exp                         4.000000
        max-rad                        5.000000


          ...................................................
          :                      SETUP                      :
          :.................................................:
          :  # basis functions                  48          :
          :  # atomic orbitals                  48          :
          :  # shells                           24          :
          :  # electrons                        36          :
          :  max. iterations                   250          :
          :  Hamiltonian                  GFN2-xTB          :
          :  restarted?                      false          :
          :  GBSA solvation                  false          :
          :  PC potential                    false          :
          :  electronic temp.          300.0000000     K    :
          :  accuracy                    0.2000000          :
          :  -> integral cutoff          0.3198970E+02      :
          :  -> integral neglect         0.2000000E-08      :
          :  -> SCF convergence          0.2000000E-06 Eh   :
          :  -> wf. convergence          0.2000000E-04 e    :
          :  Broyden damping             0.4000000          :
          ...................................................

 iter      E             dE          RMSdq      gap      omega  full diag
   1    -12.9647348 -0.129647E+02  0.196E+01    0.18       0.0  T
   2      3.2116235  0.161764E+02  0.223E+01    0.20       1.0  T
   3     16.2509461  0.130393E+02  0.258E+01    0.30       1.0  T
   4     -9.0766288 -0.253276E+02  0.139E+01    0.06       1.0  T
   5     -9.9632242 -0.886595E+00  0.132E+01    0.14       1.0  T
   6    -10.6584402 -0.695216E+00  0.109E+01    0.35       1.0  T
   7    -11.4027093 -0.744269E+00  0.100E+01    0.31       1.0  T
   8    -13.2417057 -0.183900E+01  0.815E+00    0.15       1.0  T
   9    -13.8291050 -0.587399E+00  0.644E+00    0.07       1.0  T
  10    -13.6064753  0.222630E+00  0.669E+00    0.06       1.0  T
  11    -13.7013599 -0.948847E-01  0.641E+00    0.06       1.0  T
  12    -13.7176079 -0.162480E-01  0.627E+00    0.06       1.0  T
  13    -13.7454894 -0.278815E-01  0.597E+00    0.06       1.0  T
  14    -13.7766181 -0.311287E-01  0.471E+00    0.09       1.0  T
  15    -13.8614738 -0.848556E-01  0.340E+00    0.07       1.0  T
  16    -13.8978568 -0.363830E-01  0.292E+00    0.07       1.0  T
  17    -13.8898797  0.797701E-02  0.248E+00    0.06       1.0  T
  18    -13.8941133 -0.423356E-02  0.225E+00    0.06       1.0  T
  19    -13.9092354 -0.151221E-01  0.198E+00    0.05       1.0  T
  20    -13.9147388 -0.550335E-02  0.174E+00    0.06       1.0  T
  21    -13.9292026 -0.144638E-01  0.130E+00    0.07       1.0  T
  22    -13.9337978 -0.459526E-02  0.105E+00    0.07       1.0  T
  23    -13.9333824  0.415394E-03  0.106E+00    0.07       1.0  T
  24    -13.9378916 -0.450923E-02  0.869E-01    0.06       1.0  T
  25    -13.9424139 -0.452222E-02  0.508E-01    0.06       1.0  T
  26    -13.9428053 -0.391427E-03  0.507E-01    0.06       1.0  T
  27    -13.9433991 -0.593832E-03  0.396E-01    0.06       1.0  T
  28    -13.9438733 -0.474134E-03  0.324E-01    0.06       1.0  T
  29    -13.9447354 -0.862152E-03  0.134E-01    0.07       1.0  T
  30    -13.9447625 -0.270762E-04  0.112E-01    0.07       1.0  T
  31    -13.9448363 -0.738182E-04  0.509E-02    0.07       1.0  T
  32    -13.9448717 -0.353607E-04  0.286E-02    0.07       1.0  T
  33    -13.9448750 -0.335329E-05  0.194E-02    0.07       1.5  T
  34    -13.9448772 -0.217882E-05  0.112E-02    0.07       2.6  T
  35    -13.9448771  0.134428E-06  0.102E-02    0.07       2.8  T
  36    -13.9448783 -0.127482E-05  0.331E-03    0.07       8.7  T
  37    -13.9448783  0.529752E-07  0.333E-03    0.07       8.7  T
  38    -13.9448784 -0.115267E-06  0.399E-04    0.07      72.3  T
  39    -13.9448784  0.585050E-09  0.440E-04    0.07      65.7  T
  40    -13.9448784 -0.419540E-09  0.260E-04    0.07     111.2  T
  41    -13.9448784 -0.671681E-09  0.101E-04    0.07     284.5  T
  42    -13.9448784 -0.942570E-10  0.256E-05    0.07    1125.7  T

   *** convergence criteria satisfied after 42 iterations ***

         #    Occupation            Energy/Eh            Energy/eV
      -------------------------------------------------------------
         1        2.0000           -0.4317255             -11.7478
       ...           ...                  ...                  ...
        13        2.0000           -0.2617929              -7.1237
        14        2.0000           -0.2493302              -6.7846
        15        2.0000           -0.2445242              -6.6538
        16        2.0000           -0.2340578              -6.3690
        17        1.9943           -0.2244453              -6.1075
        18        0.9866           -0.2145771              -5.8389
        19        0.8043           -0.2121528              -5.7730 (HOMO)
        20        0.2123           -0.2095665              -5.7026 (LUMO)
        21        0.0025           -0.2051166              -5.5815
        22        0.0000           -0.1975016              -5.3743
        23                         -0.1839404              -5.0053
        24                         -0.1624449              -4.4204
       ...                                ...                  ...
        48                          4.2219757             114.8858
      -------------------------------------------------------------
                  HL-Gap            0.0025863 Eh            0.0704 eV
             Fermi-level           -0.2151809 Eh           -5.8554 eV

 transition dipole moment (au) for excitation:          18          19
     X       Y       Z   
  -0.3933   0.5375   0.2552  total (au/Debye):    0.713   1.813
 dE (eV)             :    0.066
 oscillator strength :  0.11626E-02

 SCC (total)                   0 d,  0 h,  0 min,  0.068 sec
 SCC setup                      ...        0 min,  0.000 sec (  0.265%)
 Dispersion                     ...        0 min,  0.000 sec (  0.192%)
 classical contributions        ...        0 min,  0.000 sec (  0.052%)
 integral evaluation            ...        0 min,  0.003 sec (  4.227%)
 iterations                     ...        0 min,  0.056 sec ( 82.231%)
 molecular gradient             ...        0 min,  0.005 sec (  7.549%)
 printout                       ...        0 min,  0.004 sec (  5.435%)

         :::::::::::::::::::::::::::::::::::::::::::::::::::::
         ::                     SUMMARY                     ::
         :::::::::::::::::::::::::::::::::::::::::::::::::::::
         :: total energy             -13.285933616238 Eh    ::
         :: gradient norm              1.436272962454 Eh/a0 ::
         :: HOMO-LUMO gap              0.070376465004 eV    ::
         ::.................................................::
         :: SCC energy               -13.944878404648 Eh    ::
         :: -> isotropic ES            0.062568265315 Eh    ::
         :: -> anisotropic ES          0.001229709325 Eh    ::
         :: -> anisotropic XC         -0.026707469606 Eh    ::
         :: -> dispersion             -0.017131102447 Eh    ::
         :: repulsion energy           0.658924053233 Eh    ::
         :: add. restraining           0.000000000000 Eh    ::
         :: total charge               0.000000000023 e     ::
         :::::::::::::::::::::::::::::::::::::::::::::::::::::


Property printout bound to 'properties.out'

           -------------------------------------------------
          | TOTAL ENERGY              -13.285933616238 Eh   |
          | GRADIENT NORM               1.436272962454 Eh/α |
          | HOMO-LUMO GAP               0.070376465004 eV   |
           -------------------------------------------------

------------------------------------------------------------------------
 * finished run on 2026/04/17 at 12:14:35.536     
------------------------------------------------------------------------
 total:
 * wall-time:     0 d,  0 h,  0 min,  0.080 sec
 *  cpu-time:     0 d,  0 h,  0 min,  0.080 sec
 * ratio c/w:     0.999 speedup
 SCF:
 * wall-time:     0 d,  0 h,  0 min,  0.068 sec
 *  cpu-time:     0 d,  0 h,  0 min,  0.068 sec
 * ratio c/w:     1.000 speedup


-------------------------   --------------------
FINAL SINGLE POINT ENERGY       -13.285933616240
-------------------------   --------------------


-------------
DIPOLE MOMENT
-------------
                                X             Y             Z
Total Dipole Moment    :     -0.30400       0.05700       0.24000
                        -----------------------------------------
Magnitude (a.u.)       :      0.39149
Magnitude (Debye)      :      0.99509


------------------
CARTESIAN GRADIENT
------------------

   1   B   :    0.137770830   -0.868936672   -0.065659941
   2   B   :    0.213707690    0.482289161   -0.107448415
   3   B   :    0.049435007    0.063333875    0.040262476
   4   B   :   -0.076099803   -0.028169364    0.004614274
   5   B   :    0.003277517    0.036384949   -0.000839056
   6   B   :    0.085913295   -0.008202200   -0.068666642
   7   B   :    0.114580998   -0.499324161    0.078576611
   8   B   :    0.011125413   -0.050294421   -0.015736748
   9   B   :   -0.198482266    0.033216586   -0.124563999
  10   B   :   -0.059274525    0.017903618   -0.051147012
  11   B   :   -0.147218642    0.089446876    0.146991799
  12   B   :   -0.134735514    0.732351752    0.163616653

Difference to translation invariance:
           :   -0.0000000000   -0.0000000000   -0.0000000000

Difference to rotation invariance:
           :    0.0000000110    0.0000000153   -0.0000000050

Norm of the Cartesian gradient     ...    1.4362729625
RMS gradient                       ...    0.2393788271
MAX gradient                       ...    0.8689366715
------------------------------------------------------------------------------
                         ORCA GEOMETRY RELAXATION STEP
------------------------------------------------------------------------------

Reading the OPT-File                    .... done
Getting information on internals        .... done
Copying old internal coords+grads       .... done
Making the new internal coordinates     .... (2022 redundants) done
Validating the new internal coordinates .... (2022 redundants) done
Calculating the B-matrix                .... done
Calculating the G,G- and P matrices     .... done
Transforming gradient to internals      .... done
Projecting the internal gradient        .... done
Number of atoms                         ....  12
Number of internal coordinates          ....  97
Current Energy                          ....   -13.285933616 Eh
Current gradient norm                   ....     1.436272962 Eh/bohr
Maximum allowed component of the step   ....  0.300
Current trust radius                    ....  0.300
Evaluating the initial hessian          ....  (Almloef) done
Projecting the Hessian                  .... done
Forming the augmented Hessian           .... done
Diagonalizing the augmented Hessian     .... done
Last element of RFO vector              ....  0.822928784
Lowest eigenvalues of augmented Hessian:
 -0.638154767  0.010000000  0.018872657  0.026137327  0.031770281
Length of the computed step             ....  0.690393325
Warning: the length of the step is outside the trust region - taking restricted step instead
The input lambda is                     ....     0.009000
   iter:   5  x=    0.002341  g=265937.092900 f(x)=   684.774760
   iter:  10  x=   -0.059528  g=  499.613971 f(x)=    13.408087
   iter:  15  x=   -1.170680  g=    0.717034 f(x)=     0.335373
   iter:  20  x=   -2.308308  g=    0.056250 f(x)=     0.000005
The output lambda is                    ....    -2.308308 (22 iterations)
The final length of the internal step   ....  0.300000000
Converting the step to Cartesian space:
 Initial RMS(Int)=    0.0304603850
Transforming coordinates:
 Iter   0:  RMS(Cart)=    0.1458351847 RMS(Int)=    0.0312162529
 Iter   5:  RMS(Cart)=    0.0000115119 RMS(Int)=    0.0000030367
done
Storing new coordinates                 .... done

                                .--------------------.
          ----------------------|Geometry convergence|-------------------------
          Item                value                   Tolerance       Converged
          ---------------------------------------------------------------------
          RMS gradient        0.1053002461            0.0000300000      NO
          MAX gradient        0.8009765884            0.0001000000      NO
          RMS step            0.0304603850            0.0006000000      NO
          MAX step            0.1857288769            0.0010000000      NO
          -------------------------------------------------------------------------
          ........................................................
          Max(Bonds)      0.0983      Max(Angles)    5.76
          Max(Dihed)        2.47      Max(Improp)    0.00
          ---------------------------------------------------------------------

The optimization has not yet converged - more geometry cycles are needed


    ---------------------------------------------------------------------------
                         Redundant Internal Coordinates
                            (Angstroem and degrees)

        Definition                    Value    dE/dq     Step     New-Value
    ----------------------------------------------------------------------------
     1. B(B   5,B   3)                1.7580  0.087399 -0.0183    1.7397   
     2. B(B   6,B   1)                1.2427 -0.239229  0.0406    1.2833   
     3. B(B   7,B   4)                1.6296  0.054499 -0.0103    1.6193   
     4. B(B   8,B   4)                2.0835  0.012475 -0.0028    2.0807   
     5. B(B   8,B   6)                1.3557 -0.123908  0.0224    1.3781   
     6. B(B   8,B   1)                1.7295 -0.167063  0.0294    1.7590   
     7. B(B   9,B   0)                2.0328  0.019527 -0.0043    2.0284   
     8. B(B   9,B   2)                1.7947  0.082538 -0.0175    1.7773   
     9. B(B  10,B   8)                1.8351 -0.051155  0.0091    1.8442   
    10. B(B  10,B   7)                1.5737 -0.000095  0.0000    1.5737   
    11. B(B  10,B   6)                1.5241 -0.084538  0.0130    1.5371   
    12. B(B  10,B   3)                1.9461  0.033908 -0.0074    1.9387   
    13. B(B  10,B   1)                1.4367 -0.156439  0.0274    1.4640   
    14. B(B  11,B   6)                1.4403 -0.091466  0.0161    1.4564   
    15. B(B  11,B   0)                1.1527 -0.800977  0.0983    1.2510   
    16. A(B   9,B   0,B  11)           89.38  0.270443   -5.76     83.62   
    17. A(B   8,B   1,B  10)           70.15  0.055797   -1.06     69.09   
    18. A(B   6,B   1,B   8)           51.13  0.008949   -0.14     50.99   
    19. A(B   6,B   1,B  10)           68.90  0.063379   -1.26     67.64   
    20. A(B   5,B   3,B  10)          127.16 -0.056281    1.25    128.41   
    21. A(B   7,B   4,B   8)           71.62 -0.007458    0.17     71.79   
    22. A(B   1,B   6,B  10)           61.58 -0.007051    0.21     61.79   
    23. A(B   8,B   6,B  11)          124.92 -0.031580    0.59    125.51   
    24. A(B   1,B   6,B  11)          150.32  0.004404   -0.15    150.17   
    25. A(B  10,B   6,B  11)          110.91  0.024691   -0.69    110.22   
    26. A(B   1,B   6,B   8)           83.34  0.038215   -0.70     82.64   
    27. A(B   8,B   6,B  10)           78.93  0.037762   -0.66     78.27   
    28. A(B   4,B   7,B  10)          100.77 -0.027384    0.54    101.31   
    29. A(B   1,B   8,B   4)          120.99 -0.026091    0.49    121.48   
    30. A(B   1,B   8,B   6)           45.53 -0.047163    0.83     46.36   
    31. A(B   4,B   8,B   6)           88.58  0.023446   -0.45     88.13   
    32. A(B   6,B   8,B  10)           54.60 -0.010151    0.10     54.70   
    33. A(B   4,B   8,B  10)           77.79  0.003466   -0.06     77.72   
    34. A(B   1,B   8,B  10)           47.42 -0.024732    0.46     47.88   
    35. A(B   0,B   9,B   2)           82.24  0.065944   -1.47     80.77   
    36. A(B   3,B  10,B   6)           88.53  0.098638   -2.18     86.36   
    37. A(B   1,B  10,B   6)           49.52 -0.056328    1.05     50.58   
    38. A(B   7,B  10,B   8)           80.15  0.019975   -0.39     79.76   
    39. A(B   6,B  10,B   8)           46.47 -0.027611    0.56     47.03   
    40. A(B   3,B  10,B   8)          126.11  0.060624   -1.41    124.70   
    41. A(B   1,B  10,B   8)           62.43 -0.031065    0.59     63.02   
    42. A(B   1,B  10,B   3)          114.65  0.037286   -0.90    113.75   
    43. A(B   6,B  10,B   7)          111.25  0.025835   -0.48    110.77   
    44. A(B   3,B  10,B   7)           95.54 -0.011205    0.27     95.81   
    45. A(B   1,B  10,B   7)          141.01 -0.009032    0.17    141.18   
    46. A(B   0,B  11,B   6)          141.36 -0.279141    5.55    146.92   
    47. D(B  11,B   6,B   1,B  10)     82.52  0.037023   -0.98     81.54   
    48. D(B  11,B   6,B   1,B   8)    163.52  0.059973   -1.38    162.14   
    49. D(B   8,B   6,B   1,B  10)    -81.00 -0.022950    0.39    -80.60   
    50. D(B  10,B   6,B   1,B   8)     81.00  0.022950   -0.39     80.60   
    51. D(B  10,B   7,B   4,B   8)     42.09 -0.006351    0.11     42.20   
    52. D(B   6,B   8,B   1,B  10)     78.43  0.038815   -0.83     77.61   
    53. D(B   4,B   8,B   1,B   6)    -50.95 -0.020989    0.50    -50.45   
    54. D(B  10,B   8,B   4,B   7)    -35.29 -0.008598    0.18    -35.11   
    55. D(B   4,B   8,B   6,B   1)    138.25 -0.028671    0.61    138.86   
    56. D(B   4,B   8,B   1,B  10)     27.48  0.017826   -0.33     27.15   
    57. D(B  10,B   8,B   1,B   6)    -78.43 -0.038815    0.83    -77.61   
    58. D(B   1,B   8,B   6,B  10)    -62.26  0.014383   -0.35    -62.61   
    59. D(B   4,B   8,B   6,B  10)     75.99 -0.014288    0.26     76.25   
    60. D(B   6,B   8,B   4,B   7)    -89.31  0.007280   -0.03    -89.34   
    61. D(B   1,B   8,B   6,B  11)   -170.13 -0.040428    0.93   -169.21   
    62. D(B   4,B   8,B   6,B  11)    -31.89 -0.069100    1.54    -30.35   
    63. D(B  10,B   8,B   6,B   1)     62.26 -0.014383    0.35     62.61   
    64. D(B   1,B   8,B   4,B   7)    -55.64 -0.012600    0.25    -55.39   
    65. D(B   2,B   9,B   0,B  11)   -110.78 -0.100001    2.47   -108.30   
    66. D(B   1,B  10,B   6,B   8)     88.36  0.025030   -0.48     87.88   
    67. D(B   8,B  10,B   3,B   5)     78.02  0.042575   -0.99     77.03   
    68. D(B   7,B  10,B   3,B   5)     -3.81  0.026364   -0.71     -4.52   
    69. D(B   1,B  10,B   3,B   5)    150.83  0.041931   -1.16    149.67   
    70. D(B   8,B  10,B   1,B   6)     54.84 -0.013197    0.30     55.14   
    71. D(B   7,B  10,B   1,B   8)     17.88 -0.010387    0.14     18.02   
    72. D(B   6,B  10,B   3,B   5)    107.40  0.061483   -1.40    106.00   
    73. D(B   7,B  10,B   1,B   6)     72.72 -0.023583    0.44     73.16   
    74. D(B   3,B  10,B   8,B   4)    -54.50  0.027069   -0.65    -55.15   
    75. D(B   6,B  10,B   1,B   8)    -54.84  0.013197   -0.30    -55.14   
    76. D(B   1,B  10,B   6,B  11)   -148.29  0.004055   -0.08   -148.38   
    77. D(B   3,B  10,B   1,B   8)   -119.46 -0.049919    1.18   -118.28   
    78. D(B   1,B  10,B   8,B   4)   -156.12  0.021774   -0.40   -156.53   
    79. D(B   8,B  10,B   7,B   4)    -47.14 -0.005324    0.13    -47.01   
    80. D(B   3,B  10,B   1,B   6)    -64.62 -0.063115    1.48    -63.14   
    81. D(B   6,B  10,B   7,B   4)    -11.98 -0.046822    0.95    -11.03   
    82. D(B   3,B  10,B   7,B   4)     78.60  0.057714   -1.34     77.26   
    83. D(B   1,B  10,B   7,B   4)    -63.18  0.009590   -0.11    -63.29   
    84. D(B   7,B  10,B   6,B   8)    -51.49  0.036723   -0.71    -52.20   
    85. D(B   7,B  10,B   6,B   1)   -139.86  0.011693   -0.22   -140.08   
    86. D(B   3,B  10,B   6,B  11)    -23.52 -0.010790    0.25    -23.27   
    87. D(B   1,B  10,B   8,B   6)    -59.07  0.051953   -0.96    -60.02   
    88. D(B   3,B  10,B   8,B   1)    101.63  0.005295   -0.25    101.38   
    89. D(B   3,B  10,B   6,B   8)   -146.86  0.010184   -0.15   -147.01   
    90. D(B   3,B  10,B   8,B   6)     42.56  0.057247   -1.20     41.36   
    91. D(B   6,B  10,B   8,B   1)     59.07 -0.051953    0.96     60.02   
    92. D(B   6,B  10,B   8,B   4)    -97.06 -0.030179    0.55    -96.50   
    93. D(B   3,B  10,B   6,B   1)    124.77 -0.014845    0.34    125.11   
    94. D(B   0,B  11,B   6,B  10)   -162.18 -0.032585    0.72   -161.47   
    95. D(B   0,B  11,B   6,B   8)    -71.26  0.020773   -0.39    -71.65   
    96. D(B   0,B  11,B   6,B   1)    128.84 -0.059841    1.44    130.28   
    97. D(B   6,B  11,B   0,B   9)    157.90  0.088703   -2.03    155.87   
    ----------------------------------------------------------------------------

Geometry step timings:
Preparation and reading OPT file:      0.000 s ( 0.977 %)
Internal coordinates            :      0.000 s ( 1.167 %)
B/P matrices and projection     :      0.001 s (17.246 %)
Hessian update/contruction      :      0.001 s (13.054 %)
Making the step                 :      0.001 s (34.469 %)
Converting the step to Cartesian:      0.000 s ( 4.169 %)
Storing new data                :      0.000 s ( 1.620 %)
Checking convergence            :      0.000 s ( 1.096 %)
Final printing                  :      0.001 s (26.179 %)
Total time                      :      0.004 s

Time for energy+gradient        :      0.094 s
Time for complete geometry iter :      0.099 s

         *************************************************************
         *                GEOMETRY OPTIMIZATION CYCLE   2            *
         *************************************************************
---------------------------------
CARTESIAN COORDINATES (ANGSTROEM)
---------------------------------
  B    -1.172196    1.800129    0.230804
  B    -1.225872   -1.937341    0.976711
  B     1.138815    2.601640   -0.135079
  B    -0.434613   -0.655395   -1.456361
  B     1.400529    0.142741    0.833004
  B     0.630639    0.419032   -2.315148
  B    -0.908986   -0.696444    0.892006
  B     1.468924   -1.346958    0.201944
  B     0.026733   -1.053212    1.838794
  B     0.080521    1.872907   -1.362928
  B    -0.058276   -1.718064    0.120822
  B    -0.946218    0.570967    0.175430

----------------------------
CARTESIAN COORDINATES (A.U.)
----------------------------
  NO LB    ZA    FRAG    MASS        X           Y           Z
   0 B   5.0000    0    10.810   -2.215129    3.401750    0.436156
   1 B   5.0000    0    10.810   -2.316563   -3.661043    1.845717
   2 B   5.0000    0    10.810    2.152048    4.916387   -0.255262
   3 B   5.0000    0    10.810   -0.821299   -1.238517   -2.752124
   4 B   5.0000    0    10.810    2.646616    0.269741    1.574150
   5 B   5.0000    0    10.810    1.191734    0.791856   -4.374996
   6 B   5.0000    0    10.810   -1.717734   -1.316089    1.685648
   7 B   5.0000    0    10.810    2.775863   -2.545382    0.381618
   8 B   5.0000    0    10.810    0.050518   -1.990283    3.474818
   9 B   5.0000    0    10.810    0.152164    3.539281   -2.575561
  10 B   5.0000    0    10.810   -0.110126   -3.246671    0.228321
  11 B   5.0000    0    10.810   -1.788093    1.078971    0.331515

      -----------------------------------------------------------      
     |                   =====================                   |     
     |                           x T B                           |     
     |                   =====================                   |     
     |                         S. Grimme                         |     
     |          Mulliken Center for Theoretical Chemistry        |     
     |                    University of Bonn                     |     
      -----------------------------------------------------------      

   * xtb version 6.6.1 (unknown) compiled by 'builduser@buildhost' on 2023-08-07

   xtb is free software: you can redistribute it and/or modify it under
   the terms of the GNU Lesser General Public License as published by
   the Free Software Foundation, either version 3 of the License, or
   (at your option) any later version.
   
   xtb is distributed in the hope that it will be useful,
   but WITHOUT ANY WARRANTY; without even the implied warranty of
   MERCHANTABILITY or FITNESS FOR A PARTICULAR PURPOSE.  See the
   GNU Lesser General Public License for more details.
   
   Cite this work as:
   * C. Bannwarth, E. Caldeweyher, S. Ehlert, A. Hansen, P. Pracht,
     J. Seibert, S. Spicher, S. Grimme, WIREs Comput. Mol. Sci., 2020, 11,
     e01493. DOI: 10.1002/wcms.1493
   
   for GFN2-xTB:
   * C. Bannwarth, S. Ehlert and S. Grimme., J. Chem. Theory Comput., 2019,
     15, 1652-1671. DOI: 10.1021/acs.jctc.8b01176
   for GFN1-xTB:
   * S. Grimme, C. Bannwarth, P. Shushkov, J. Chem. Theory Comput., 2017,
     13, 1989-2009. DOI: 10.1021/acs.jctc.7b00118
   for GFN0-xTB:
   * P. Pracht, E. Caldeweyher, S. Ehlert, S. Grimme, ChemRxiv, 2019, preprint.
     DOI: 10.26434/chemrxiv.8326202.v1
   for GFN-FF:
   * S. Spicher and S. Grimme, Angew. Chem. Int. Ed., 2020, 59, 15665-15673.
     DOI: 10.1002/anie.202004239
   
   for ALPB and GBSA implicit solvation:
   * S. Ehlert, M. Stahn, S. Spicher, S. Grimme, J. Chem. Theory Comput.,
     2021, 17, 4250-4261. DOI: 10.1021/acs.jctc.1c00471
   
   for DFT-D4:
   * E. Caldeweyher, C. Bannwarth and S. Grimme, J. Chem. Phys., 2017,
     147, 034112. DOI: 10.1063/1.4993215
   * E. Caldeweyher, S. Ehlert, A. Hansen, H. Neugebauer, S. Spicher,
     C. Bannwarth and S. Grimme, J. Chem. Phys., 2019, 150, 154122.
     DOI: 10.1063/1.5090222
   * E. Caldeweyher, J.-M. Mewes, S. Ehlert and S. Grimme, Phys. Chem. Chem. Phys.
     2020, 22, 8499-8512. DOI: 10.1039/D0CP00502A
   
   for sTDA-xTB:
   * S. Grimme and C. Bannwarth, J. Chem. Phys., 2016, 145, 054103.
     DOI: 10.1063/1.4959605
   
   in the mass-spec context:
   * V. Asgeirsson, C. Bauer and S. Grimme, Chem. Sci., 2017, 8, 4879.
     DOI: 10.1039/c7sc00601b
   * J. Koopman and S. Grimme, ACS Omega 2019, 4, 12, 15120-15133.
     DOI: 10.1021/acsomega.9b02011
   
   for metadynamics refer to:
   * S. Grimme, J. Chem. Theory Comput., 2019, 155, 2847-2862
     DOI: 10.1021/acs.jctc.9b00143
   
   for SPH calculations refer to:
   * S. Spicher and S. Grimme, J. Chem. Theory Comput., 2021, 17, 1701-1714
     DOI: 10.1021/acs.jctc.0c01306
   
   with help from (in alphabetical order)
   P. Atkinson, C. Bannwarth, F. Bohle, G. Brandenburg, E. Caldeweyher
   M. Checinski, S. Dohm, S. Ehlert, S. Ehrlich, I. Gerasimov, C. Hölzer
   A. Katbashev, J. Koopman, C. Lavigne, S. Lehtola, F. März, M. Müller,
   F. Musil, H. Neugebauer, J. Pisarek, C. Plett, P. Pracht, F. Pultar,
   J. Seibert, P. Shushkov, S. Spicher, M. Stahn, M. Steiner, T. Strunk,
   J. Stückrath, T. Rose, and J. Unsleber
   
 * started run on 2026/04/17 at 12:14:35.554     

           -------------------------------------------------
          |                Calculation Setup                |
           -------------------------------------------------

          program call               : /usr/bin/xtb random_d1.50_008_m3_XTB.xyz --grad -c 0 -u 2 -P 1 --namespace random_d1.50_008_m3 --input random_d1.50_008_m3_XTB.input.tmp --acc 0.200000
          calculation namespace      : random_d1.50_008_m3
          coordinate file            : random_d1.50_008_m3_XTB.xyz
          omp threads                :                     1

   ID    Z sym.   atoms
    1    5 B      1-12

           -------------------------------------------------
          |                 G F N 2 - x T B                 |
           -------------------------------------------------

        Reference                      10.1021/acs.jctc.8b01176
      * Hamiltonian:
        H0-scaling (s, p, d)           1.850000    2.230000    2.230000
        zeta-weighting                 0.500000
      * Dispersion:
        s8                             2.700000
        a1                             0.520000
        a2                             5.000000
        s9                             5.000000
      * Repulsion:
        kExp                           1.500000    1.000000
        rExp                           1.000000
      * Coulomb:
        alpha                          2.000000
        third order                    shell-resolved
        anisotropic                    true
        a3                             3.000000
        a5                             4.000000
        cn-shift                       1.200000
        cn-exp                         4.000000
        max-rad                        5.000000

q/qsh data taken from xtbrestart
CAMM data taken from xtbrestart

          ...................................................
          :                      SETUP                      :
          :.................................................:
          :  # basis functions                  48          :
          :  # atomic orbitals                  48          :
          :  # shells                           24          :
          :  # electrons                        36          :
          :  max. iterations                   250          :
          :  Hamiltonian                  GFN2-xTB          :
          :  restarted?                       true          :
          :  GBSA solvation                  false          :
          :  PC potential                    false          :
          :  electronic temp.          300.0000000     K    :
          :  accuracy                    0.2000000          :
          :  -> integral cutoff          0.3198970E+02      :
          :  -> integral neglect         0.2000000E-08      :
          :  -> SCF convergence          0.2000000E-06 Eh   :
          :  -> wf. convergence          0.2000000E-04 e    :
          :  Broyden damping             0.4000000          :
          ...................................................

 iter      E             dE          RMSdq      gap      omega  full diag
   1    -13.9242175 -0.139242E+02  0.330E+00    0.12       0.0  T
   2     -9.8557829  0.406843E+01  0.113E+01    0.08       1.0  T
   3    -13.1355728 -0.327979E+01  0.527E+00    0.29       1.0  T
   4    -13.2414377 -0.105865E+00  0.548E+00    0.15       1.0  T
   5    -13.7599294 -0.518492E+00  0.370E+00    0.09       1.0  T
   6    -13.8679683 -0.108039E+00  0.268E+00    0.03       1.0  T
   7    -13.8653922  0.257615E-02  0.298E+00    0.09       1.0  T
   8    -13.9424524 -0.770602E-01  0.190E+00    0.13       1.0  T
   9    -13.9608464 -0.183940E-01  0.197E+00    0.13       1.0  T
  10    -13.9917704 -0.309239E-01  0.128E+00    0.09       1.0  T
  11    -13.9916240  0.146406E-03  0.123E+00    0.10       1.0  T
  12    -13.9939976 -0.237361E-02  0.123E+00    0.09       1.0  T
  13    -13.9969181 -0.292051E-02  0.106E+00    0.08       1.0  T
  14    -13.9996317 -0.271361E-02  0.821E-01    0.08       1.0  T
  15    -13.9990652  0.566477E-03  0.776E-01    0.08       1.0  T
  16    -13.9985037  0.561498E-03  0.749E-01    0.08       1.0  T
  17    -13.9963315  0.217221E-02  0.769E-01    0.07       1.0  T
  18    -13.9973206 -0.989084E-03  0.710E-01    0.08       1.0  T
  19    -13.9996939 -0.237327E-02  0.534E-01    0.07       1.0  T
  20    -14.0012428 -0.154896E-02  0.350E-01    0.07       1.0  T
  21    -14.0018200 -0.577196E-03  0.241E-01    0.07       1.0  T
  22    -14.0021894 -0.369376E-03  0.123E-01    0.07       1.0  T
  23    -14.0021668  0.225842E-04  0.128E-01    0.07       1.0  T
  24    -14.0020272  0.139614E-03  0.154E-01    0.07       1.0  T
  25    -14.0022438 -0.216596E-03  0.472E-02    0.07       1.0  T
  26    -14.0022518 -0.804949E-05  0.383E-02    0.07       1.0  T
  27    -14.0022666 -0.148124E-04  0.136E-02    0.07       2.1  T
  28    -14.0022677 -0.107051E-05  0.771E-03    0.07       3.7  T
  29    -14.0022680 -0.292780E-06  0.475E-03    0.07       6.1  T
  30    -14.0022681 -0.608018E-07  0.227E-03    0.07      12.7  T
  31    -14.0022681 -0.185750E-07  0.737E-04    0.07      39.2  T
  32    -14.0022681  0.553570E-09  0.527E-04    0.07      54.8  T
  33    -14.0022681 -0.357486E-08  0.546E-05    0.07     528.5  T
  34    -14.0022681  0.527116E-10  0.818E-05    0.07     353.0  T

   *** convergence criteria satisfied after 34 iterations ***

         #    Occupation            Energy/Eh            Energy/eV
      -------------------------------------------------------------
         1        2.0000           -0.4252606             -11.5719
       ...           ...                  ...                  ...
        13        2.0000           -0.2564281              -6.9778
        14        2.0000           -0.2529413              -6.8829
        15        2.0000           -0.2432385              -6.6189
        16        2.0000           -0.2317716              -6.3068
        17        2.0000           -0.2294991              -6.2450
        18        0.9742           -0.2099981              -5.7143
        19        0.8049           -0.2078944              -5.6571 (HOMO)
        20        0.1939           -0.2051946              -5.5836 (LUMO)
        21        0.0270           -0.2031412              -5.5278
        22        0.0000           -0.1959927              -5.3332
        23                         -0.1730924              -4.7101
        24                         -0.1600246              -4.3545
       ...                                ...                  ...
        48                          2.8971879              78.8365
      -------------------------------------------------------------
                  HL-Gap            0.0026999 Eh            0.0735 eV
             Fermi-level           -0.2131537 Eh           -5.8002 eV

 transition dipole moment (au) for excitation:          18          19
     X       Y       Z   
  -0.7849  -0.6705  -0.0326  total (au/Debye):    1.033   2.625
 dE (eV)             :    0.057
 oscillator strength :  0.21156E-02

 SCC (total)                   0 d,  0 h,  0 min,  0.046 sec
 SCC setup                      ...        0 min,  0.000 sec (  0.323%)
 Dispersion                     ...        0 min,  0.000 sec (  0.256%)
 classical contributions        ...        0 min,  0.000 sec (  0.075%)
 integral evaluation            ...        0 min,  0.003 sec (  6.090%)
 iterations                     ...        0 min,  0.033 sec ( 72.342%)
 molecular gradient             ...        0 min,  0.005 sec ( 11.701%)
 printout                       ...        0 min,  0.004 sec (  9.153%)

         :::::::::::::::::::::::::::::::::::::::::::::::::::::
         ::                     SUMMARY                     ::
         :::::::::::::::::::::::::::::::::::::::::::::::::::::
         :: total energy             -13.540624016793 Eh    ::
         :: gradient norm              0.840090554775 Eh/a0 ::
         :: HOMO-LUMO gap              0.073467003252 eV    ::
         ::.................................................::
         :: SCC energy               -14.002268094071 Eh    ::
         :: -> isotropic ES            0.068044318349 Eh    ::
         :: -> anisotropic ES          0.001628851040 Eh    ::
         :: -> anisotropic XC         -0.028765903813 Eh    ::
         :: -> dispersion             -0.015534275014 Eh    ::
         :: repulsion energy           0.461629162357 Eh    ::
         :: add. restraining           0.000000000000 Eh    ::
         :: total charge              -0.000000000037 e     ::
         :::::::::::::::::::::::::::::::::::::::::::::::::::::


Property printout bound to 'properties.out'

           -------------------------------------------------
          | TOTAL ENERGY              -13.540624016793 Eh   |
          | GRADIENT NORM               0.840090554775 Eh/α |
          | HOMO-LUMO GAP               0.073467003252 eV   |
           -------------------------------------------------

------------------------------------------------------------------------
 * finished run on 2026/04/17 at 12:14:35.613     
------------------------------------------------------------------------
 total:
 * wall-time:     0 d,  0 h,  0 min,  0.058 sec
 *  cpu-time:     0 d,  0 h,  0 min,  0.058 sec
 * ratio c/w:     1.000 speedup
 SCF:
 * wall-time:     0 d,  0 h,  0 min,  0.046 sec
 *  cpu-time:     0 d,  0 h,  0 min,  0.046 sec
 * ratio c/w:     1.000 speedup


-------------------------   --------------------
FINAL SINGLE POINT ENERGY       -13.540624016790
-------------------------   --------------------


-------------
DIPOLE MOMENT
-------------
                                X             Y             Z
Total Dipole Moment    :     -0.04200       0.04900       0.05300
                        -----------------------------------------
Magnitude (a.u.)       :      0.08351
Magnitude (Debye)      :      0.21227


------------------
CARTESIAN GRADIENT
------------------

   1   B   :    0.044258387   -0.416087761    0.020389438
   2   B   :    0.142263126    0.362314827   -0.072343039
   3   B   :    0.049316001    0.070818845    0.021161154
   4   B   :   -0.072484968   -0.024705662    0.000608364
   5   B   :    0.000366712    0.025930946    0.000862947
   6   B   :    0.090756940   -0.014653348   -0.071646670
   7   B   :    0.129526493   -0.380081556    0.046089442
   8   B   :    0.014722885   -0.042844652   -0.023115885
   9   B   :   -0.174866457    0.020254548   -0.095609138
  10   B   :   -0.059380597    0.018515041   -0.024653538
  11   B   :   -0.117940076    0.079243945    0.131862261
  12   B   :   -0.046538446    0.301294829    0.066394663

Difference to translation invariance:
           :   -0.0000000000    0.0000000000   -0.0000000000

Difference to rotation invariance:
           :   -0.0000000040   -0.0000000626   -0.0000000167

Norm of the Cartesian gradient     ...    0.8400905548
RMS gradient                       ...    0.1400150925
MAX gradient                       ...    0.4160877607
------------------------------------------------------------------------------
                         ORCA GEOMETRY RELAXATION STEP
------------------------------------------------------------------------------

Reading the OPT-File                    .... done
Getting information on internals        .... done
Copying old internal coords+grads       .... done
Making the new internal coordinates     .... (2022 redundants) done
Validating the new internal coordinates .... (2022 redundants) done
Calculating the B-matrix                .... done
Calculating the G,G- and P matrices     .... done
Transforming gradient to internals      .... done
Projecting the internal gradient        .... done
Number of atoms                         ....  12
Number of internal coordinates          ....  97
Current Energy                          ....   -13.540624017 Eh
Current gradient norm                   ....     0.840090555 Eh/bohr
Maximum allowed component of the step   ....  0.300
Current trust radius                    ....  0.300
Updating the Hessian (BFGS)             .... done
Forming the augmented Hessian           .... done
Diagonalizing the augmented Hessian     .... done
Last element of RFO vector              ....  0.751649613
Lowest eigenvalues of augmented Hessian:
 -0.606517248  0.010008204  0.022246567  0.031557859  0.034577096
Length of the computed step             ....  0.877486817
Warning: the length of the step is outside the trust region - taking restricted step instead
The input lambda is                     ....     0.008320
   iter:   5  x=    0.001692  g=1090011.611333 f(x)=  2783.974500
   iter:  10  x=   -0.055452  g= 2198.950172 f(x)=    52.224173
   iter:  15  x=   -0.736422  g=    3.994581 f(x)=     1.093223
   iter:  20  x=   -2.112034  g=    0.079492 f(x)=     0.001796
The output lambda is                    ....    -2.112374 (23 iterations)
The final length of the internal step   ....  0.300000000
Converting the step to Cartesian space:
 Initial RMS(Int)=    0.0304603850
Transforming coordinates:
 Iter   0:  RMS(Cart)=    0.2194354815 RMS(Int)=    0.0326579541
 Iter   5:  RMS(Cart)=    0.0000773176 RMS(Int)=    0.0000144113
 Iter  10:  RMS(Cart)=    0.0000000569 RMS(Int)=    0.0000000175
done
Storing new coordinates                 .... done
The predicted energy change is          ....    -0.202098479
Previously predicted energy change      ....    -0.255511544
Actually observed energy change         ....    -0.254690401
Ratio of predicted to observed change   ....     0.996786278
New trust radius                        ....     0.450000000

                                .--------------------.
          ----------------------|Geometry convergence|-------------------------
          Item                value                   Tolerance       Converged
          ---------------------------------------------------------------------
          Energy change      -0.2546904006            0.0000010000      NO
          RMS gradient        0.0737494834            0.0000300000      NO
          MAX gradient        0.3264817626            0.0001000000      NO
          RMS step            0.0304603850            0.0006000000      NO
          MAX step            0.1313732166            0.0010000000      NO
          -------------------------------------------------------------------------
          ........................................................
          Max(Bonds)      0.0476      Max(Angles)    7.53
          Max(Dihed)        4.19      Max(Improp)    0.00
          ---------------------------------------------------------------------

The optimization has not yet converged - more geometry cycles are needed


    ---------------------------------------------------------------------------
                         Redundant Internal Coordinates
                            (Angstroem and degrees)

        Definition                    Value    dE/dq     Step     New-Value
    ----------------------------------------------------------------------------
     1. B(B   5,B   3)                1.7397  0.081889 -0.0192    1.7205   
     2. B(B   6,B   1)                1.2835 -0.179235  0.0349    1.3184   
     3. B(B   7,B   4)                1.6193  0.048806 -0.0108    1.6085   
     4. B(B   8,B   4)                2.0807  0.011381 -0.0027    2.0780   
     5. B(B   8,B   6)                1.3781 -0.102176  0.0215    1.3996   
     6. B(B   8,B   1)                1.7589 -0.139468  0.0292    1.7882   
     7. B(B   9,B   0)                2.0284 -0.000267  0.0019    2.0304   
     8. B(B   9,B   2)                1.7773  0.073023 -0.0168    1.7604   
     9. B(B  10,B   8)                1.8441 -0.038602  0.0080    1.8521   
    10. B(B  10,B   7)                1.5737  0.000099 -0.0001    1.5736   
    11. B(B  10,B   6)                1.5369 -0.041567  0.0058    1.5427   
    12. B(B  10,B   3)                1.9387  0.032671 -0.0079    1.9308   
    13. B(B  10,B   1)                1.4642 -0.126245  0.0258    1.4900   
    14. B(B  11,B   6)                1.4564 -0.062819  0.0122    1.4686   
    15. B(B  11,B   0)                1.2510 -0.326482  0.0476    1.2986   
    16. A(B   9,B   0,B  11)           83.62  0.293440   -7.53     76.10   
    17. A(B   8,B   1,B  10)           69.10  0.045515   -1.05     68.06   
    18. A(B   6,B   1,B   8)           50.99  0.007072   -0.14     50.85   
    19. A(B   6,B   1,B  10)           67.65  0.057726   -1.42     66.23   
    20. A(B   5,B   3,B  10)          128.41 -0.076509    2.13    130.54   
    21. A(B   7,B   4,B   8)           71.79 -0.004278    0.08     71.87   
    22. A(B   1,B   6,B  10)           61.78 -0.014127    0.45     62.23   
    23. A(B   8,B   6,B  11)          125.50 -0.018669    0.36    125.86   
    24. A(B   1,B   6,B  11)          150.17  0.008836   -0.26    149.91   
    25. A(B  10,B   6,B  11)          110.23  0.039404   -1.21    109.02   
    26. A(B   1,B   6,B   8)           82.65  0.023271   -0.45     82.20   
    27. A(B   8,B   6,B  10)           78.28  0.022956   -0.43     77.85   
    28. A(B   4,B   7,B  10)          101.31 -0.025406    0.62    101.93   
    29. A(B   1,B   8,B   4)          121.48 -0.021070    0.48    121.96   
    30. A(B   1,B   8,B   6)           46.36 -0.030343    0.59     46.95   
    31. A(B   4,B   8,B   6)           88.13  0.018487   -0.41     87.72   
    32. A(B   6,B   8,B  10)           54.69  0.002158   -0.17     54.52   
    33. A(B   4,B   8,B  10)           77.72  0.001297   -0.00     77.72   
    34. A(B   1,B   8,B  10)           47.88 -0.018995    0.42     48.30   
    35. A(B   0,B   9,B   2)           80.77  0.095546   -2.71     78.07   
    36. A(B   3,B  10,B   6)           86.35  0.107513   -2.87     83.49   
    37. A(B   1,B  10,B   6)           50.57 -0.043599    0.97     51.54   
    38. A(B   7,B  10,B   8)           79.76  0.018456   -0.46     79.30   
    39. A(B   6,B  10,B   8)           47.03 -0.025114    0.60     47.63   
    40. A(B   3,B  10,B   8)          124.70  0.072115   -2.01    122.68   
    41. A(B   1,B  10,B   8)           63.01 -0.026520    0.63     63.64   
    42. A(B   1,B  10,B   3)          113.76  0.050573   -1.47    112.29   
    43. A(B   6,B  10,B   7)          110.76  0.020730   -0.47    110.29   
    44. A(B   3,B  10,B   7)           95.80 -0.017676    0.54     96.34   
    45. A(B   1,B  10,B   7)          141.17 -0.007233    0.17    141.34   
    46. A(B   0,B  11,B   6)          146.92 -0.301680    7.41    154.32   
    47. D(B  11,B   6,B   1,B  10)     81.54  0.052160   -1.57     79.97   
    48. D(B  11,B   6,B   1,B   8)    162.14  0.066662   -1.84    160.31   
    49. D(B   8,B   6,B   1,B  10)    -80.60 -0.014502    0.27    -80.34   
    50. D(B  10,B   6,B   1,B   8)     80.60  0.014502   -0.27     80.34   
    51. D(B  10,B   7,B   4,B   8)     42.20 -0.005103    0.12     42.31   
    52. D(B   6,B   8,B   1,B  10)     77.61  0.039863   -1.03     76.58   
    53. D(B   4,B   8,B   1,B   6)    -50.45 -0.027546    0.78    -49.67   
    54. D(B  10,B   8,B   4,B   7)    -35.12 -0.007228    0.17    -34.94   
    55. D(B   4,B   8,B   6,B   1)    138.85 -0.030619    0.82    139.67   
    56. D(B   4,B   8,B   1,B  10)     27.16  0.012317   -0.25     26.91   
    57. D(B  10,B   8,B   1,B   6)    -77.61 -0.039863    1.03    -76.58   
    58. D(B   1,B   8,B   6,B  10)    -62.60  0.019188   -0.55    -63.15   
    59. D(B   4,B   8,B   6,B  10)     76.25 -0.011431    0.27     76.52   
    60. D(B   6,B   8,B   4,B   7)    -89.33 -0.005077    0.25    -89.09   
    61. D(B   1,B   8,B   6,B  11)   -169.20 -0.044948    1.21   -167.99   
    62. D(B   4,B   8,B   6,B  11)    -30.35 -0.075567    2.03    -28.32   
    63. D(B  10,B   8,B   6,B   1)     62.60 -0.019188    0.55     63.15   
    64. D(B   1,B   8,B   4,B   7)    -55.39 -0.009649    0.21    -55.18   
    65. D(B   2,B   9,B   0,B  11)   -108.30 -0.138815    4.19   -104.11   
    66. D(B   1,B  10,B   6,B   8)     87.88  0.017270   -0.37     87.51   
    67. D(B   8,B  10,B   3,B   5)     77.03  0.045199   -1.22     75.81   
    68. D(B   7,B  10,B   3,B   5)     -4.52  0.034871   -1.06     -5.58   
    69. D(B   1,B  10,B   3,B   5)    149.67  0.059672   -1.84    147.83   
    70. D(B   8,B  10,B   1,B   6)     55.14 -0.013278    0.32     55.47   
    71. D(B   7,B  10,B   1,B   8)     18.02 -0.003416    0.01     18.03   
    72. D(B   6,B  10,B   3,B   5)    106.00  0.065345   -1.80    104.21   
    73. D(B   7,B  10,B   1,B   6)     73.16 -0.016694    0.33     73.49   
    74. D(B   3,B  10,B   8,B   4)    -55.15  0.036927   -1.07    -56.22   
    75. D(B   6,B  10,B   1,B   8)    -55.14  0.013278   -0.32    -55.47   
    76. D(B   1,B  10,B   6,B  11)   -148.37  0.004230   -0.13   -148.50   
    77. D(B   3,B  10,B   1,B   8)   -118.28 -0.059291    1.67   -116.61   
    78. D(B   1,B  10,B   8,B   4)   -156.52  0.015909   -0.34   -156.86   
    79. D(B   8,B  10,B   7,B   4)    -47.01 -0.003863    0.10    -46.92   
    80. D(B   3,B  10,B   1,B   6)    -63.14 -0.072569    1.99    -61.14   
    81. D(B   6,B  10,B   7,B   4)    -11.04 -0.038555    0.90    -10.14   
    82. D(B   3,B  10,B   7,B   4)     77.25  0.072056   -2.02     75.23   
    83. D(B   1,B  10,B   7,B   4)    -63.28  0.004114   -0.03    -63.31   
    84. D(B   7,B  10,B   6,B   8)    -52.19  0.027143   -0.61    -52.80   
    85. D(B   7,B  10,B   6,B   1)   -140.07  0.009872   -0.24   -140.32   
    86. D(B   3,B  10,B   6,B  11)    -23.27 -0.006655    0.14    -23.13   
    87. D(B   1,B  10,B   8,B   6)    -60.02  0.037627   -0.81    -60.82   
    88. D(B   3,B  10,B   8,B   1)    101.38  0.021018   -0.73    100.64   
    89. D(B   3,B  10,B   6,B   8)   -147.02  0.006386   -0.09   -147.11   
    90. D(B   3,B  10,B   8,B   6)     41.36  0.058645   -1.54     39.82   
    91. D(B   6,B  10,B   8,B   1)     60.02 -0.037627    0.81     60.82   
    92. D(B   6,B  10,B   8,B   4)    -96.50 -0.021718    0.47    -96.04   
    93. D(B   3,B  10,B   6,B   1)    125.10 -0.010885    0.28    125.38   
    94. D(B   0,B  11,B   6,B  10)   -161.47 -0.027985    0.68   -160.79   
    95. D(B   0,B  11,B   6,B   8)    -71.65  0.022657   -0.58    -72.23   
    96. D(B   0,B  11,B   6,B   1)    130.28 -0.064819    1.78    132.06   
    97. D(B   6,B  11,B   0,B   9)    155.87  0.097346   -2.62    153.25   
    ----------------------------------------------------------------------------

Geometry step timings:
Preparation and reading OPT file:      0.000 s ( 2.416 %)
Internal coordinates            :      0.000 s ( 1.094 %)
B/P matrices and projection     :      0.001 s (23.251 %)
[...]
          ----------------------|Geometry convergence|-------------------------
          Item                value                   Tolerance       Converged
          ---------------------------------------------------------------------
          Energy change      -0.0000016173            0.0000010000      NO
          RMS gradient        0.0000439911            0.0000300000      NO
          MAX gradient        0.0002141768            0.0001000000      NO
          RMS step            0.0012308797            0.0006000000      NO
          MAX step            0.0039935375            0.0010000000      NO
          -------------------------------------------------------------------------
          ........................................................
          Max(Bonds)      0.0015      Max(Angles)    0.09
          Max(Dihed)        0.23      Max(Improp)    0.00
          ---------------------------------------------------------------------

The optimization has not yet converged - more geometry cycles are needed


    ---------------------------------------------------------------------------
                         Redundant Internal Coordinates
                            (Angstroem and degrees)

        Definition                    Value    dE/dq     Step     New-Value
    ----------------------------------------------------------------------------
     1. B(B   2,B   0)                1.5404 -0.000098  0.0001    1.5405   
     2. B(B   4,B   2)                1.5637 -0.000038 -0.0001    1.5636   
     3. B(B   5,B   3)                1.5278 -0.000056  0.0001    1.5279   
     4. B(B   6,B   1)                1.5565 -0.000109 -0.0001    1.5564   
     5. B(B   7,B   4)                1.5251  0.000039  0.0000    1.5251   
     6. B(B   8,B   6)                1.7439 -0.000112  0.0007    1.7446   
     7. B(B   8,B   4)                1.7349  0.000055  0.0002    1.7351   
     8. B(B   8,B   7)                1.6918  0.000069 -0.0001    1.6917   
     9. B(B   9,B   5)                1.5604 -0.000039  0.0002    1.5606   
    10. B(B   9,B   2)                1.7682 -0.000028 -0.0006    1.7676   
    11. B(B   9,B   0)                1.6915 -0.000081  0.0003    1.6918   
    12. B(B  10,B   6)                2.9536  0.000059 -0.0008    2.9527   
    13. B(B  10,B   3)                1.5854  0.000037  0.0001    1.5855   
    14. B(B  10,B   7)                1.5532 -0.000075  0.0003    1.5535   
    15. B(B  10,B   1)                1.8110  0.000214 -0.0007    1.8104   
    16. B(B  10,B   8)                1.7603  0.000090 -0.0015    1.7588   
    17. B(B  11,B   9)                1.7979  0.000043  0.0003    1.7982   
    18. B(B  11,B   6)                1.5487  0.000109 -0.0001    1.5487   
    19. B(B  11,B   2)                2.4434 -0.000071  0.0004    2.4438   
    20. B(B  11,B   0)                1.5258 -0.000170 -0.0002    1.5256   
    21. A(B   9,B   0,B  11)           67.72  0.000070    0.01     67.73   
    22. A(B   2,B   0,B  11)          105.67  0.000082    0.03    105.70   
    23. A(B   2,B   0,B   9)           66.15  0.000027   -0.04     66.11   
    24. A(B   6,B   1,B  10)          122.40 -0.000026   -0.01    122.39   
    25. A(B   9,B   2,B  11)           47.26  0.000028   -0.00     47.26   
    26. A(B   4,B   2,B  11)          108.19  0.000031    0.05    108.24   
    27. A(B   0,B   2,B   4)          142.18 -0.000009    0.00    142.18   
    28. A(B   0,B   2,B   9)           61.03 -0.000009    0.03     61.06   
    29. A(B   0,B   2,B  11)           36.96 -0.000050   -0.02     36.94   
    30. A(B   4,B   2,B   9)          110.42  0.000006    0.03    110.45   
    31. A(B   5,B   3,B  10)          115.00  0.000010    0.07    115.07   
    32. A(B   2,B   4,B   8)           98.50 -0.000019   -0.05     98.45   
    33. A(B   2,B   4,B   7)          148.60 -0.000027    0.02    148.62   
    34. A(B   7,B   4,B   8)           62.13  0.000008   -0.01     62.12   
    35. A(B   3,B   5,B   9)          137.28  0.000004   -0.07    137.22   
    36. A(B   8,B   6,B  11)          109.14  0.000005    0.00    109.14   
    37. A(B   1,B   6,B  11)          138.72  0.000043   -0.05    138.67   
    38. A(B   8,B   6,B  10)           32.73 -0.000002   -0.02     32.71   
    39. A(B   1,B   6,B  10)           31.18  0.000041    0.00     31.18   
    40. A(B   1,B   6,B   8)           62.94  0.000030    0.01     62.95   
    41. A(B  10,B   6,B  11)          124.60 -0.000001    0.01    124.61   
    42. A(B   4,B   7,B   8)           65.03 -0.000002    0.01     65.04   
    43. A(B   4,B   7,B  10)          114.99  0.000021   -0.04    114.95   
    44. A(B   8,B   7,B  10)           65.54  0.000033   -0.07     65.48   
    45. A(B   6,B   8,B  10)          114.89  0.000043   -0.01    114.88   
    46. A(B   4,B   8,B  10)           95.94 -0.000048    0.03     95.96   
    47. A(B   4,B   8,B   6)          126.45  0.000000    0.02    126.47   
    48. A(B   6,B   8,B   7)          164.74 -0.000010    0.04    164.78   
    49. A(B   4,B   8,B   7)           52.84 -0.000005   -0.00     52.83   
    50. A(B   7,B   8,B  10)           53.43 -0.000051    0.04     53.47   
    51. A(B   0,B   9,B   5)          166.79  0.000001   -0.06    166.72   
    52. A(B   0,B   9,B   2)           52.82 -0.000018    0.01     52.83   
    53. A(B   5,B   9,B  11)          117.86  0.000061   -0.03    117.83   
    54. A(B   0,B   9,B  11)           51.75 -0.000054   -0.02     51.73   
    55. A(B   2,B   9,B  11)           86.49 -0.000033    0.02     86.52   
    56. A(B   2,B   9,B   5)          123.60  0.000014    0.01    123.62   
    57. A(B   6,B  10,B   7)           92.87 -0.000024    0.05     92.92   
    58. A(B   3,B  10,B   7)          137.73 -0.000012   -0.06    137.67   
    59. A(B   1,B  10,B   7)          118.94 -0.000045    0.09    119.03   
    60. A(B   3,B  10,B   6)           72.49  0.000001    0.03     72.51   
    61. A(B   1,B  10,B   6)           26.42 -0.000016    0.01     26.43   
    62. A(B   1,B  10,B   3)           56.89  0.000036    0.00     56.90   
    63. A(B   7,B  10,B   8)           61.02  0.000017    0.03     61.05   
    64. A(B   6,B  10,B   8)           32.39 -0.000041    0.03     32.41   
    65. A(B   3,B  10,B   8)          100.75 -0.000032    0.02    100.76   
    66. A(B   1,B  10,B   8)           57.94 -0.000063    0.06     58.00   
    67. A(B   6,B  11,B   9)           89.87 -0.000061    0.03     89.91   
    68. A(B   2,B  11,B   9)           46.25  0.000005   -0.02     46.22   
    69. A(B   0,B  11,B   9)           60.53 -0.000016    0.01     60.54   
    70. A(B   2,B  11,B   6)           95.29 -0.000030   -0.02     95.27   
    71. A(B   0,B  11,B   2)           37.37 -0.000032   -0.01     37.36   
    72. D(B   4,B   2,B   0,B   9)    -86.40 -0.000003   -0.07    -86.48   
    73. D(B  11,B   2,B   0,B   9)    -56.32 -0.000047    0.03    -56.29   
    74. D(B   4,B   2,B   0,B  11)    -30.08  0.000043   -0.11    -30.19   
    75. D(B   9,B   2,B   0,B  11)     56.32  0.000047   -0.03     56.29   
    76. D(B   7,B   4,B   2,B   0)     78.99  0.000001   -0.16     78.83   
    77. D(B   8,B   4,B   2,B   0)     30.46 -0.000012    0.00     30.46   
    78. D(B   8,B   4,B   2,B   9)    -38.25 -0.000005   -0.07    -38.32   
    79. D(B   7,B   4,B   2,B   9)     10.28  0.000008   -0.23     10.05   
    80. D(B   7,B   4,B   2,B  11)     60.49  0.000045   -0.21     60.28   
    81. D(B   9,B   5,B   3,B  10)    -21.29  0.000037    0.15    -21.14   
    82. D(B  10,B   6,B   0,B   2)    -17.00 -0.000018    0.06    -16.93   
    83. D(B   8,B   6,B   0,B   9)     78.07  0.000007   -0.02     78.04   
    84. D(B   8,B   6,B   1,B  10)    -11.35 -0.000044    0.10    -11.24   
    85. D(B   8,B   6,B   0,B   2)     11.24 -0.000009    0.02     11.27   
    86. D(B   1,B   6,B   0,B   2)    -41.76 -0.000035    0.02    -41.74   
    87. D(B   1,B   6,B   0,B   9)     25.06 -0.000019   -0.02     25.04   
    88. D(B  10,B   6,B   0,B   9)     49.82 -0.000002    0.02     49.85   
    89. D(B  11,B   6,B   1,B  10)     77.30 -0.000024    0.12     77.42   
    90. D(B  10,B   7,B   4,B   8)     43.86  0.000026   -0.04     43.82   
    91. D(B  10,B   7,B   4,B   2)    -13.09  0.000010    0.16    -12.94   
    92. D(B   8,B   7,B   4,B   2)    -56.96 -0.000016    0.20    -56.76   
    93. D(B   4,B   8,B   6,B   1)    129.83  0.000030   -0.04    129.78   
    94. D(B   4,B   8,B   6,B  11)     -5.89 -0.000016    0.01     -5.88   
    95. D(B   4,B   8,B   6,B  10)    118.97 -0.000026    0.05    119.02   
    96. D(B   7,B   8,B   6,B  10)     37.38 -0.000004   -0.04     37.34   
    97. D(B  10,B   8,B   4,B   7)    -33.86  0.000027   -0.03    -33.88   
    98. D(B  10,B   8,B   4,B   2)    119.94  0.000002    0.06    120.00   
    99. D(B   7,B   8,B   6,B   1)     48.24  0.000052   -0.13     48.10   
   100. D(B   6,B   8,B   4,B   2)     -7.13 -0.000012    0.03     -7.09   
   101. D(B   6,B   8,B   4,B   7)   -160.93  0.000013   -0.05   -160.98   
   102. D(B   7,B   8,B   4,B   2)    153.80 -0.000026    0.09    153.88   
   103. D(B   6,B   8,B   7,B   4)     93.09 -0.000013    0.06     93.15   
   104. D(B   6,B   8,B   7,B  10)    -43.29 -0.000011    0.07    -43.21   
   105. D(B  10,B   8,B   7,B   4)    136.37 -0.000002   -0.01    136.36   
   106. D(B   4,B   8,B   7,B  10)   -136.37  0.000002    0.01   -136.36   
   107. D(B  10,B   8,B   6,B   1)     10.86  0.000056   -0.09     10.76   
   108. D(B   7,B   8,B   6,B  11)    -87.48  0.000006   -0.08    -87.56   
   109. D(B  11,B   9,B   5,B   3)    -61.76 -0.000042   -0.07    -61.83   
   110. D(B   2,B   9,B   5,B   3)     43.80 -0.000028   -0.09     43.71   
   111. D(B   0,B   9,B   5,B   3)    -26.06 -0.000009   -0.14    -26.20   
   112. D(B   0,B   9,B   2,B  11)     42.94 -0.000057   -0.04     42.91   
   113. D(B   5,B   9,B   2,B   4)    -25.15 -0.000011    0.08    -25.07   
   114. D(B   5,B   9,B   2,B   0)   -164.37  0.000001    0.08   -164.29   
   115. D(B  11,B   9,B   2,B   0)    -42.94  0.000057    0.04    -42.91   
   116. D(B   0,B   9,B   2,B   4)    139.23 -0.000012   -0.01    139.22   
   117. D(B  11,B   9,B   0,B   2)    120.02  0.000035    0.06    120.07   
   118. D(B   5,B   9,B   0,B  11)    -41.06 -0.000050    0.05    -41.01   
   119. D(B   5,B   9,B   2,B  11)   -121.43 -0.000056    0.05   -121.38   
   120. D(B   2,B   9,B   0,B  11)   -120.02 -0.000035   -0.06   -120.07   
   121. D(B   5,B   9,B   0,B   2)     78.95 -0.000015    0.11     79.06   
   122. D(B   3,B  10,B   6,B  11)    -79.26  0.000000    0.07    -79.19   
   123. D(B   3,B  10,B   6,B   8)   -149.60 -0.000011    0.13   -149.47   
   124. D(B   3,B  10,B   6,B   1)     49.31  0.000070   -0.04     49.26   
   125. D(B   1,B  10,B   6,B   8)    161.09 -0.000082    0.17    161.26   
   126. D(B   8,B  10,B   3,B   5)     36.78  0.000004   -0.13     36.64   
   127. D(B   7,B  10,B   3,B   5)    -21.60  0.000010   -0.20    -21.80   
   128. D(B   6,B  10,B   3,B   5)     52.79 -0.000022   -0.05     52.73   
   129. D(B   1,B  10,B   6,B  11)   -128.57 -0.000070    0.11   -128.45   
   130. D(B   1,B  10,B   3,B   5)     76.54 -0.000019   -0.04     76.50   
   131. D(B   8,B  10,B   1,B   6)     11.82  0.000045   -0.10     11.72   
   132. D(B   7,B  10,B   1,B   6)     10.14  0.000074   -0.14     10.00   
   133. D(B   7,B  10,B   6,B   1)   -171.13  0.000068   -0.13   -171.26   
   134. D(B   3,B  10,B   1,B   6)   -120.33  0.000064   -0.05   -120.37   
   135. D(B   6,B  10,B   8,B   4)   -134.96  0.000009   -0.04   -135.00   
   136. D(B   3,B  10,B   8,B   7)   -139.11 -0.000000    0.09   -139.01   
   137. D(B   3,B  10,B   8,B   6)     29.42 -0.000014    0.14     29.55   
   138. D(B   1,B  10,B   8,B   7)   -178.32 -0.000029    0.04   -178.27   
   139. D(B   1,B  10,B   8,B   6)     -9.80 -0.000043    0.09     -9.71   
   140. D(B   1,B  10,B   8,B   4)   -144.76 -0.000033    0.05   -144.71   
   141. D(B   6,B  10,B   7,B   8)      6.13  0.000000   -0.01      6.11   
   142. D(B   6,B  10,B   7,B   4)    -37.51 -0.000010   -0.01    -37.52   
   143. D(B   3,B  10,B   7,B   8)     73.00 -0.000023    0.11     73.11   
   144. D(B   3,B  10,B   7,B   4)     29.36 -0.000033    0.12     29.47   
   145. D(B   3,B  10,B   8,B   4)   -105.55 -0.000005    0.10   -105.45   
   146. D(B   1,B  10,B   7,B   8)      1.63 -0.000029    0.05      1.68   
   147. D(B   1,B  10,B   7,B   4)    -42.01 -0.000040    0.05    -41.96   
   148. D(B   7,B  10,B   6,B  11)     60.30 -0.000002   -0.02     60.28   
   149. D(B   7,B  10,B   6,B   8)    -10.04 -0.000014    0.04    -10.00   
   150. D(B   6,B  11,B   9,B   2)    -97.46 -0.000017    0.04    -97.42   
   151. D(B   6,B  11,B   9,B   0)   -141.18  0.000013    0.07   -141.11   
   152. D(B   2,B  11,B   9,B   5)    126.50  0.000015    0.02    126.52   
   153. D(B   0,B  11,B   9,B   5)    170.22 -0.000015   -0.01    170.21   
   154. D(B   0,B  11,B   9,B   2)     43.72 -0.000030   -0.03     43.69   
   155. D(B   9,B  11,B   6,B  10)     23.97  0.000024   -0.02     23.94   
   156. D(B   9,B  11,B   6,B   1)    -13.88 -0.000024   -0.05    -13.93   
   157. D(B   2,B  11,B   6,B  10)    -22.03  0.000024   -0.02    -22.05   
   158. D(B   2,B  11,B   6,B   8)     10.58  0.000025   -0.05     10.53   
   159. D(B   2,B  11,B   6,B   1)    -59.87 -0.000024   -0.05    -59.93   
   160. D(B   9,B  11,B   2,B   0)     97.55 -0.000003    0.06     97.61   
   161. D(B   9,B  11,B   6,B   8)     56.58  0.000025   -0.05     56.52   
   162. D(B   6,B  11,B   2,B   9)     84.74 -0.000055    0.07     84.80   
   163. D(B   6,B  11,B   2,B   4)    -16.59 -0.000040    0.06    -16.53   
   164. D(B   6,B  11,B   2,B   0)   -177.71 -0.000059    0.13   -177.58   
   165. D(B   2,B  11,B   9,B   0)    -43.72  0.000030    0.03    -43.69   
   166. D(B   0,B  11,B   2,B   9)    -97.55  0.000003   -0.06    -97.61   
   167. D(B   0,B  11,B   2,B   4)    161.12  0.000018   -0.07    161.05   
   168. D(B   9,B  11,B   0,B   2)    -55.33 -0.000021    0.04    -55.29   
   169. D(B   2,B  11,B   0,B   9)     55.33  0.000021   -0.04     55.29   
    ----------------------------------------------------------------------------

Geometry step timings:
Preparation and reading OPT file:      0.000 s ( 0.476 %)
Internal coordinates            :      0.000 s ( 0.759 %)
B/P matrices and projection     :      0.002 s (26.299 %)
Hessian update/contruction      :      0.001 s (17.284 %)
Making the step                 :      0.002 s (31.919 %)
Converting the step to Cartesian:      0.000 s ( 2.958 %)
Storing new data                :      0.000 s ( 0.746 %)
Checking convergence            :      0.000 s ( 1.055 %)
Final printing                  :      0.001 s (18.506 %)
Total time                      :      0.008 s

Time for energy+gradient        :      0.060 s
Time for complete geometry iter :      0.069 s




    ----------------------------------------------------------------------------
                                  WARNING !!!
       The optimization did not converge but reached the maximum number of
       optimization cycles.
       Please check your results very carefully.
    ----------------------------------------------------------------------------



--------------------------------
SUGGESTED CITATIONS FOR THIS RUN
--------------------------------

Below you find a list of papers that are relevant to this ORCA run
We neither can nor want to force you to cite these papers, but we appreciate if you do
You receive ORCA, which is the product of decades of hard work by many enthusiastic individuals, for free
The only thing we kindly ask in return is that you cite our papers,
We deeply appreciate it, if you show your appreciation for ORCA by not just citing the generic ORCA reference.

Please note that relegating all ORCA citations to the supporting information does *not* help us.
SI sections are not indexed - citations you put there will not count into any citation statistics
But we need these citations in order to attract the funding resources that allow us to do what we are doing

Therefore, if you are a happy ORCA user, please consider citing a few of the papers listed below in the main body of your paper

In addition to the list printed below, the program has created the file random_d1.50_008_m3.bibtex that contains the list in bibtex format
You can import this file easily into all common literature databanks and citation aid programs

It goes without saying that in many instances, there are alternative algorithms to achieve similar
results as the ones you have gotten from ORCA. It is, of course, also the case that in some instances
ORCA just re-implements algorithms worked out by others. We are fully aware of that and we are also
fully appreciative of our colleagues work. Hence this citation list should not be read as indicating
that the listed papers, which are focused on our own work, are the only ones worth citing. It simply
meant to make it easier for users to cite ORCA specific papers. It is not a substitute for doing your
own literature research and citing the relevant literature in a scientifically appropriate manner.

List of essential papers. We consider these as the minimum necessary citations

  1. Bannwarth, C.; Ehlert, S.; Grimme, S.
     GFN2-xTB—An Accurate and Broadly Parametrized Self-Consistent Tight-Binding Quantum Chemical Method with Multipole Electrostatics and Density-Dependent Dispersion Contributions
     J. Chem. Theory Comput. 2019 15(3), 1652-1671
     doi.org/10.1021/acs.jctc.8b01176
  2. Neese, F.
     Software update: the ORCA program system, version 6.0
     WIRES Comput. Molec. Sci. 2025 15(1), e70019
     doi.org/10.1002/wcms.70019

List of papers to cite with high priority. The work reported in these papers was absolutely
necessary for this run to complete.
Our perspective: the developers of density functionals and basis sets usually get cited in chemistry papers
Good! But without the algorithms to do something with them, the functionals or basis sets would not do anything.
Hence, in our opinion, the algorithm design and method developments papers are equally worthy of getting cited

  1. Bannwarth, C.; Caldeweyher, E.; Ehlert, S.; Hansen, A.; Pracht, P.; Seibert, J.; Spicher, S.; Grimme, S.
     Extended tight-binding quantum chemistry methods
     WIRES Comput. Molec. Sci. 2020 11(2), e1493
     doi.org/10.1002/wcms.1493

List of suggested additional citations. These are papers that are important in the 'surrounding' of 
of this run, or papers that preceded the highly important papers. If you like your results we are grateful for a citation.

  1. Neese, F.
     The ORCA program system
     WIRES Comput. Molec. Sci. 2012 2(1), 73-78
     doi.org/10.1002/wcms.81
  2. Neese, F.
     Software update: the ORCA program system, version 4.0
     WIRES Comput. Molec. Sci. 2018 8(1), 1-6
     doi.org/10.1002/wcms.1327
  3. Neese, F.; Wennmohs, F.; Becker, U.; Riplinger, C.
     The ORCA quantum chemistry program package
     J. Chem. Phys. 2020 152(22), 224108
     doi.org/10.1063/5.0004608
  4. Neese, F.
     Software update: The ORCA program system—Version 5.0
     WIRES Comput. Molec. Sci. 2022 12(1), e1606
     doi.org/10.1002/wcms.1606

List of optional additional citations

  1. Neese, F.
     Approximate second-order SCF convergence for spin unrestricted wavefunctions
     Chem. Phys. Lett. 2000 325(1-3), 93-98
     doi.org/10.1016/s0009-2614(00)00662-x

Timings for individual modules:

Sum of individual times          ...        3.232 sec (=   0.054 min)
Geometry relaxation              ...        0.417 sec (=   0.007 min)  12.9 %
XTB module                       ...        2.815 sec (=   0.047 min)  87.1 %
                             ****ORCA TERMINATED NORMALLY****
TOTAL RUN TIME: 0 days 0 hours 0 minutes 3 seconds 785 msec
