
                                 *****************
                                 * O   R   C   A *
                                 *****************

                                            #,                                       
                                            ###                                      
                                            ####                                     
                                            #####                                    
                                            ######                                   
                                           ########,                                 
                                     ,,################,,,,,                         
                               ,,#################################,,                 
                          ,,##########################################,,             
                       ,#########################################, ''#####,          
                    ,#############################################,,   '####,        
                  ,##################################################,,,,####,       
                ,###########''''           ''''###############################       
              ,#####''   ,,,,##########,,,,          '''####'''          '####       
            ,##' ,,,,###########################,,,                        '##       
           ' ,,###''''                  '''############,,,                           
         ,,##''                                '''############,,,,        ,,,,,,###''
      ,#''                                            '''#######################'''  
     '                                                          ''''####''''         
             ,#######,   #######,   ,#######,      ##                                
            ,#'     '#,  ##    ##  ,#'     '#,    #''#        ,####,    ,#,          
            ##       ##  ##   ,#'  ##            #'  '#       #'       ,# #          
            ##       ##  #######   ##           ,######,      #####,      #          
            '#,     ,#'  ##    ##  '#,     ,#' ,#      #,     #,   #      #          
             '#######'   ##     ##  '#######'  #'      '#     '####' #    #          



                #########################################################
                #                        -***-                          #
                #          Department of theory and spectroscopy        #
                #                                                       #
                #                      Frank Neese                      #
                #                                                       #
                #     Directorship, Architecture, Infrastructure        #
                #                    SHARK, DRIVERS                     #
                #        Core code/Algorithms in most modules           #
                #                                                       #
                #        Max Planck Institute fuer Kohlenforschung      #
                #                Kaiser Wilhelm Platz 1                 #
                #                 D-45470 Muelheim/Ruhr                 #
                #                      Germany                          #
                #                                                       #
                #                  All rights reserved                  #
                #                        -***-                          #
                #########################################################


                         Program Version 6.1.1  -  RELEASE   -
                                (GIT: $487d211c$)
                          ($2025-11-21 10:33:24 +0100$)
                                                                         
                                  - NO-DMRG VERSION -                    
                                                                         


 With contributions from (in alphabetic order):
[Max-Planck-Institut fuer Kohlenforschung]                               
  Daniel Aravena         : Magnetic Suceptibility                        
  Michael Atanasov       : Ab Initio Ligand Field Theory (pilot matlab implementation)
  Alexander A. Auer      : GIAO ZORA, VPT2 properties, NMR spectrum      
  Ute Becker             : All parallelization in ORCA, NUMFREQ, NUMCALC 
  Giovanni Bistoni       : ED, misc. LED, open-shell LED, HFLD           
  Dmytro Bykov           : pre 5.0 version of the SCF Hessian            
  Marcos Casanova-Páez   : Triplet and SCS-CIS(D). UHF-(DLPNO)-IP/EA/STEOM-CCSD. UHF-CVS-IP/STEOM-CCSD   
  Vijay G. Chilkuri      : MRCI spin determinant printing, contributions to CSF-ICE 
  Pauline Colinet        : FMM embedding                                 
  Dipayan Datta          : RHF DLPNO-CCSD density                        
  Achintya Kumar Dutta   : EOM-CC, STEOM-CC                              
  Nicolas Foglia         : Exact transition moments, OPA infrastructure, MCD improvements    
  Dmitry Ganyushin       : Spin-Orbit,Spin-Spin,Magnetic field MRCI      
  Miquel Garcia-Rates    : C-PCM and meta-GGA Hessian, CCSD/C-PCM, Gaussian charge scheme 
  Tiago L. C. Gouveia    : GS-ROHF, GS-ROCIS                             
  Yang Guo               : DLPNO-NEVPT2, F12-NEVPT2, CIM, IAO-localization        
  Andreas Hansen         : Spin unrestricted coupled pair/coupled cluster methods 
  Ingolf Harden          : AUTO-CI MPn and infrastructure                
  Benjamin Helmich-Paris : MC-RPA, TRAH-(SCF,CASSCF), AVAS, COSX integrals, SCF dyn. polar., MC-PDFT, srDFT 
  Lee Huntington         : MR-EOM, pCC                                   
  Robert Izsak           : Overlap fitted RIJCOSX, COSX-SCS-MP3, EOM     
  Riya Kayal             : Wick's Theorem for AUTO-CI, AUTO-CI UHF-CCSDT 
  Emily Kempfer          : AUTO-CI RHF CISDT and CCSDT, approximate NEVPT4
  Christian Kollmar      : KDIIS, OOCD, Brueckner-CCSD(T), CCSD density, CASPT2, CASPT2-K, improved NEVPT2 
  Axel Koslowski         : Symmetry handling                             
  Simone Kossmann        : meta-GGA functionals, TD-DFT gradient, OOMP2, (MP2 Hessian; deprecated post 5.0) 
  Lucas Lang             : DCDCAS, Hyperfine gauge corrections, ICE-SOC+SSC
  Marvin Lechner         : AUTO-CI (C++ implementation), FIC-MRCC        
  Spencer Leger          : CASSCF response                               
  Dagmar Lenk            : GEPOL surface, SMD, ORCA-2-JSON               
  Dimitrios Liakos       : Extrapolation schemes; Compound Job, Property file
  Dimitrios Manganas     : Further ROCIS development; embedding schemes. LFT, Crystal Embedding 
  Dimitrios Pantazis     : SARC Basis sets                               
  Anastasios Papadopoulos: AUTO-CI, single reference methods and gradients 
  Taras Petrenko         : pre 6.0 DFT Hessian and TD-DFT gradient,  ECA, NRVS 
  Petra Pikulova         : Analytic Raman intensities                    
  Peter Pinski           : DLPNO-MP2, DLPNO-MP2 Gradient                 
  Shashank Vittal Rao    : ES-AILFT, MagRelax                            
  Christoph Reimann      : Effective Core Potentials                     
  Marius Retegan         : Local ZFS, SOC                                
  Christoph Riplinger    : Optimizer, TS searches, QM/MM, DLPNO-CCSD(T), (RO)-DLPNO pert. Triples 
  Michael Roemelt        : Original ROCIS implementation, recursive CI coupling coefficients
  Masaaki Saitow         : Open-shell DLPNO-CCSD energy and density      
  Barbara Sandhoefer     : DKH picture change effects                    
  Yorick L. A. Schmerwitz: GMF and freeze-and-release deltaSCF, NEB S-IDPP initial path                    
  Kantharuban Sivalingam : CASSCF convergence/infrastructure, NEVPT2, NEVPT3, NEVPT4(SD), FIC-MRCI and CEPA variants
  Bernardo de Souza      : ESD, SOC TD-DFT                               
  Georgi L. Stoychev     : AutoAux, RI-MP2 NMR, DLPNO-MP2 response, X2C  
  Van Anh Tran           : RI-MP2 g-tensors                              
  Willem Van den Heuvel  : Paramagnetic NMR                              
  Zikuan Wang            : NOTCH, Electric field optimization            
  Frank Wennmohs         : Technical directorship and infrastructure     
  Hang Xu                : AUTO-CI-Response properties                   
                                                                         
[FACCTs GmbH]                                                            
  Markus Bursch, Nicolas Foglia, Miquel Garcia-Rates, Ingolf Harden, Hagen Neugebauer, Anastasios Papadopoulos, 
  Christoph Riplinger, Bernardo de Souza, Georgi L. Stoychev                                                    
                                                                 
  APM, various basis sets, CI-OPT, improved COSX, DLPNO-Multilevel,           
  DOCKER, DRACO, updates on ESD, Fragmentator, GOAT, IRC, LR-CPCM, L-BFGS, MBIS, meta-GGA TD-DFT gradient, ML-optimized integration grids, 
  MM, NACMEs, nearIR, NEB, NEB-TS, NL-DFT gradient (VV10), 2- and 3-layer-ONIOM, interface openCOSMO-RS, QMMM,   
  Crystal-QMMM, RESP, rigid body optimization, SF, symmetry and pop. for TD-DFT, various functionals, SOLVATOR                                   
                                                                         
[Other institutions]                                                     
  V. Asgeirsson          : NEB                                           
  Christoph Bannwarth    : sTDA-DFT, sTD-DFT, PBEh-3c, B97-3c, D3        
  Giovanni Bistoni       : ETS/NOCV, ADLD/ADEX, COVALED                  
  Martin Brehm           : Molecular dynamics                            
  Ronald Cardenas        : ETS/NOCV                                      
  Martina Colucci        : COVALED                                       
  Sebastian Ehlert       : rSCAN, r2SCAN, r2SCAN-3c, D4, dhf basis sets  
  Marvin Friede          : D4 for Fr, Ra, Ac-Lr                          
  Lars Goerigk           : TD-DFT with DH, B97 family of functionals     
  Stefan Grimme          : VdW corrections, initial TS optimization, DFT functionals, gCP, sTDA/sTD-DF 
  Waldemar Hujo          : DFT-NL                                        
  H. Jonsson             : NEB                                           
  Holger Kruse           : gCP                                           
  Marcel Mueller         : wB97X-3c, vDZP basis set                      
  Hagen Neugebauer       : wr2SCAN, Native XTB                           
  Gianluca Regni         : ADLD/ADEX                                     
  Tobias Risthaus        : pre 6.0 range-separated hybrid DFT and stability analysis
  Lukas Wittmann         : regularized MP2, r2SCAN double-hybrids, wr2SCAN        
                                                                         
We gratefully acknowledge several colleagues who have allowed us to      
interface, adapt or use parts of their codes:                            
  Ed Valeev, F. Pavosevic, A. Kumar             : LibInt (2-el integral package), F12 methods 
  Garnet Chan, S. Sharma, J. Yang, R. Olivares  : DMRG                   
  Ulf Ekstrom                                   : XCFun DFT Library      
  Mihaly Kallay                                 : mrcc  (arbitrary order and MRCC methods)
  Frank Weinhold                                : gennbo (NPA and NBO analysis)           
  Simon Mueller                                 : openCOSMO-RS                            
  Christopher J. Cramer and Donald G. Truhlar   : smd solvation model                     
  S Lehtola, MJT Oliveira, MAL Marques          : LibXC Library                           
  Liviu Ungur et al                             : ANISO software                          


 Your calculation uses the libint2 library for the computation of 2-el integrals
 For citations please refer to: http://libint.valeyev.net

 Your ORCA version has been built with support for libXC version: 7.0.0
 For citations please refer to: https://libxc.gitlab.io

 This ORCA versions uses:
   CBLAS   interface :  Fast vector & matrix operations
   LAPACKE interface :  Fast linear algebra routines
   SCALAPACK package :  Parallel linear algebra routines
   Shared memory     :  Shared parallel matrices
   BLAS/LAPACK       :  OpenBLAS 0.3.29  USE64BITINT DYNAMIC_ARCH NO_AFFINITY Zen SINGLE_THREADED
        Core in use  :  Zen
   Copyright (c) 2011-2014, The OpenBLAS Project


  ***********************************
  * Starting time: Fri Apr 17 12:14:55 2026
  * Host name:     vmi3233575
  * Process ID:    340725
  * Working dir.:  /root/orca_b12_vps_pack/jobs/01_xtb/mult_3
  ***********************************

NOTE: MaxCore=500 MB was set to SCF,MP2,MDCI,CIPSI,MRCI,RASCI and CIS
      => If you want to overwrite this, your respective input block should be placed after the MaxCore statement


***************************************
The coordinates will be read from file: ../../../starts/random_d2.10_010.xyz
***************************************


Your calculation utilizes the semiempirical GFN2-xTB method
Please cite in your paper:
Bannwarth, C.; Ehlert S.; Grimme, S. J. Chem. Theory Comput. 2019, 15, 1652.
   

================================================================================

================================================================================
                                        WARNINGS
                       Please study these warnings very carefully!
================================================================================


WARNING: Geometry Optimization
  ===> : Switching off AutoStart
         For restart on a previous wavefunction, please use MOREAD

WARNING: Found dipole moment calculation with XTB calculation
  ===> : Switching off dipole moment calculation

Environment variable XTBEXE for xtb has been set!

================================================================================
                                       INPUT FILE
================================================================================
NAME = random_d2.10_010_m3.inp
|  1> ! GFN2-xTB TightSCF TightOpt
|  2> 
|  3> %pal
|  4>   nprocs 1
|  5> end
|  6> 
|  7> %maxcore 500
|  8> 
|  9> * xyzfile 0 3 ../../../starts/random_d2.10_010.xyz
| 10> 
| 11>                          ****END OF INPUT****
================================================================================

                       *****************************
                       * Geometry Optimization Run *
                       *****************************

Geometry optimization settings:
Update method            Update   .... BFGS
Choice of coordinates    CoordSys .... (2022) Redundant Internals
Initial Hessian          InHess   .... Almloef's Model
Max. no of cycles        MaxIter  .... 50

Convergence Tolerances:
Energy Change            TolE     ....  1.0000e-06 Eh
Max. Gradient            TolMAXG  ....  1.0000e-04 Eh/bohr
RMS Gradient             TolRMSG  ....  3.0000e-05 Eh/bohr
Max. Displacement        TolMAXD  ....  1.0000e-03 bohr
RMS Displacement         TolRMSD  ....  6.0000e-04 bohr
Strict Convergence                .... False

------------------------------------------------------------------------------
                        ORCA OPTIMIZATION COORDINATE SETUP
------------------------------------------------------------------------------

The optimization will be done in redundant internal coordinates (2022)
Making redundant internal coordinates   ...  (2022 redundants) done
Evaluating the initial hessian          ...  (Almloef) done
Evaluating the coordinates              ...  done
Calculating the B-matrix                .... done
Calculating the G-matrix                .... done
The number of degrees of freedom        ....  159

    -----------------------------------------------------------------
                    Redundant Internal Coordinates


    -----------------------------------------------------------------
         Definition                    Initial Value    Approx d2E/dq
    -----------------------------------------------------------------
      1. B(B   1,B   0)                  2.8989         0.010000   
      2. B(B   2,B   0)                  1.6620         0.308614   
      3. B(B   3,B   0)                  2.2517         0.035363   
      4. B(B   3,B   1)                  1.3309         1.041491   
      5. B(B   4,B   3)                  2.4514         0.016980   
      6. B(B   5,B   1)                  2.6612         0.010000   
      7. B(B   5,B   0)                  1.7496         0.223708   
      8. B(B   5,B   2)                  2.0208         0.082604   
      9. B(B   5,B   4)                  3.1642         0.010000   
     10. B(B   5,B   3)                  2.4479         0.017198   
     11. B(B   6,B   3)                  2.8916         0.010000   
     12. B(B   6,B   4)                  1.6989         0.269507   
     13. B(B   7,B   6)                  2.0198         0.082890   
     14. B(B   8,B   1)                  2.8091         0.010000   
     15. B(B  10,B   8)                  2.0336         0.078797   
     16. B(B  10,B   7)                  2.2400         0.036913   
     17. B(B  10,B   9)                  1.7362         0.235010   
     18. B(B  11,B  10)                  2.6545         0.010000   
     19. B(B  11,B   6)                  1.7210         0.248489   
     20. A(B   1,B   0,B   3)           26.3102         0.146492   
     21. A(B   2,B   0,B   5)           72.5936         0.333119   
     22. A(B   1,B   0,B   2)           88.2056         0.182877   
     23. A(B   3,B   0,B   5)           74.2489         0.238502   
     24. A(B   2,B   0,B   3)          114.5047         0.249795   
     25. A(B   1,B   0,B   5)           64.4000         0.176284   
     26. A(B   3,B   1,B   5)           66.1807         0.239654   
     27. A(B   0,B   1,B   8)          114.7918         0.125168   
     28. A(B   0,B   1,B   5)           36.3636         0.129903   
     29. A(B   3,B   1,B   8)          123.9992         0.222215   
     30. A(B   0,B   1,B   3)           48.5811         0.212629   
     31. A(B   5,B   1,B   8)           78.7046         0.133074   
     32. A(B   0,B   2,B   5)           55.7050         0.283836   
     33. A(B   1,B   3,B   6)           94.6512         0.213384   
     34. A(B   0,B   3,B   5)           43.4623         0.172649   
     35. A(B   4,B   3,B   5)           80.4577         0.159851   
     36. A(B   0,B   3,B   4)          105.0517         0.172407   
     37. A(B   1,B   3,B   5)           83.9929         0.268878   
     38. A(B   1,B   3,B   4)          114.8076         0.268357   
     39. A(B   0,B   3,B   1)          105.1087         0.300755   
     40. A(B   4,B   3,B   6)           35.8956         0.137993   
     41. A(B   0,B   3,B   6)          140.8120         0.146843   
     42. A(B   5,B   3,B   6)          107.8521         0.138135   
     43. A(B   3,B   4,B   6)           86.3225         0.221081   
     44. A(B   3,B   4,B   5)           49.7230         0.128057   
     45. A(B   5,B   4,B   6)          122.6185         0.162021   
     46. A(B   1,B   5,B   4)           67.0178         0.121806   
     47. A(B   2,B   5,B   3)           94.9922         0.190358   
     48. A(B   0,B   5,B   3)           62.2888         0.215996   
     49. A(B   0,B   5,B   2)           51.7014         0.270152   
     50. A(B   3,B   5,B   4)           49.8193         0.128170   
     51. A(B   2,B   5,B   4)          142.4996         0.144873   
     52. A(B   1,B   5,B   3)           29.8264         0.148512   
     53. A(B   0,B   5,B   4)           94.5243         0.159006   
     54. A(B   1,B   5,B   2)           88.3960         0.173891   
     55. A(B   0,B   5,B   1)           79.2364         0.195363   
     56. A(B   3,B   6,B  11)          105.6939         0.178930   
     57. A(B   3,B   6,B   7)          110.3727         0.159143   
     58. A(B   3,B   6,B   4)           57.7819         0.180598   
     59. A(B   7,B   6,B  11)           75.9778         0.274656   
     60. A(B   4,B   6,B  11)           84.7217         0.331442   
     61. A(B   4,B   6,B   7)          153.7114         0.278099   
     62. A(B   6,B   7,B  10)          103.0640         0.209579   
     63. A(B   1,B   8,B  10)           86.3453         0.163267   
     64. A(B   7,B  10,B  11)           55.6688         0.160139   
     65. A(B   9,B  10,B  11)           86.8482         0.197159   
     66. A(B   8,B  10,B  11)           78.1578         0.173459   
     67. A(B   8,B  10,B   9)           71.3318         0.270238   
     68. A(B   7,B  10,B   9)          126.0486         0.241654   
     69. A(B   7,B  10,B   8)          125.6054         0.208205   
     70. A(B   6,B  11,B  10)           97.1364         0.198533   
     71. D(B   5,B   1,B   0,B   2)     71.5266         0.010000   
     72. D(B   3,B   1,B   0,B   2)    178.3768         0.010000   
     73. D(B   3,B   1,B   0,B   5)    106.8502         0.010000   
     74. D(B   5,B   1,B   0,B   3)   -106.8502         0.010000   
     75. D(B   8,B   1,B   0,B   5)     -7.5999         0.010000   
     76. D(B   8,B   1,B   0,B   2)     63.9267         0.010000   
     77. D(B   5,B   2,B   0,B   1)    -63.6903         0.010000   
     78. D(B   5,B   2,B   0,B   3)    -62.8997         0.010000   
     79. D(B   4,B   3,B   1,B   0)   -114.9058         0.067630   
     80. D(B   4,B   3,B   0,B   2)    119.7264         0.010000   
     81. D(B   4,B   3,B   1,B   5)    -76.5688         0.067630   
     82. D(B   5,B   3,B   0,B   2)     61.9559         0.010000   
     83. D(B   4,B   3,B   1,B   8)    -20.3492         0.067630   
     84. D(B   4,B   3,B   0,B   1)    121.5094         0.010000   
     85. D(B   5,B   3,B   0,B   1)     63.7389         0.010000   
     86. D(B   5,B   3,B   1,B   8)     56.2196         0.067630   
     87. D(B   5,B   3,B   1,B   0)    -38.3370         0.067630   
     88. D(B   1,B   3,B   0,B   2)     -1.7830         0.010000   
     89. D(B   0,B   3,B   1,B   8)     94.5566         0.067630   
     90. D(B   1,B   3,B   0,B   5)    -63.7389         0.010000   
     91. D(B   0,B   3,B   1,B   5)     38.3370         0.067630   
     92. D(B   4,B   3,B   0,B   5)     57.7705         0.010000   
     93. D(B   5,B   4,B   3,B   6)    139.6819         0.010000   
     94. D(B   6,B   4,B   3,B   0)   -175.8426         0.010000   
     95. D(B   6,B   4,B   3,B   1)    -60.9038         0.010000   
     96. D(B   6,B   4,B   3,B   5)   -139.6819         0.010000   
     97. D(B   5,B   4,B   3,B   0)    -36.1607         0.010000   
     98. D(B   5,B   4,B   3,B   1)     78.7781         0.010000   
     99. D(B   3,B   5,B   0,B   2)   -122.6873         0.010000   
    100. D(B   2,B   5,B   0,B   1)     96.5355         0.010000   
    101. D(B   2,B   5,B   0,B   3)    122.6873         0.010000   
    102. D(B   2,B   5,B   4,B   3)     24.0142         0.010000   
    103. D(B   2,B   5,B   4,B   6)     74.0645         0.010000   
    104. D(B   0,B   5,B   4,B   6)     97.4116         0.010000   
    105. D(B   1,B   5,B   3,B   0)   -119.4752         0.010000   
    106. D(B   2,B   5,B   3,B   6)    170.9124         0.010000   
    107. D(B   2,B   5,B   3,B   4)   -165.6001         0.010000   
    108. D(B   2,B   5,B   3,B   0)    -41.5305         0.010000   
    109. D(B   2,B   5,B   3,B   1)     77.9447         0.010000   
    110. D(B   0,B   5,B   3,B   6)   -147.5571         0.010000   
    111. D(B   0,B   5,B   3,B   1)    119.4752         0.010000   
    112. D(B   4,B   5,B   2,B   0)     30.2254         0.010000   
    113. D(B   1,B   5,B   2,B   0)     77.5288         0.010000   
    114. D(B   3,B   5,B   2,B   0)     48.4118         0.010000   
    115. D(B   3,B   5,B   1,B   8)   -135.3566         0.010000   
    116. D(B   0,B   5,B   3,B   4)   -124.0695         0.010000   
    117. D(B   3,B   5,B   1,B   0)     51.6762         0.010000   
    118. D(B   2,B   5,B   1,B   8)    121.7069         0.010000   
    119. D(B   2,B   5,B   1,B   0)    -51.2603         0.010000   
    120. D(B   2,B   5,B   1,B   3)   -102.9365         0.010000   
    121. D(B   0,B   5,B   1,B   8)    172.9672         0.010000   
    122. D(B   0,B   5,B   1,B   3)    -51.6762         0.010000   
    123. D(B   4,B   5,B   0,B   2)   -162.0966         0.010000   
    124. D(B   0,B   5,B   4,B   3)     47.3613         0.010000   
    125. D(B   1,B   5,B   0,B   3)     26.1519         0.010000   
    126. D(B   1,B   5,B   0,B   2)    -96.5355         0.010000   
    127. D(B   3,B   5,B   4,B   6)     50.0503         0.010000   
    128. D(B   1,B   5,B   4,B   6)     21.1242         0.010000   
    129. D(B   3,B   5,B   0,B   1)    -26.1519         0.010000   
    130. D(B   7,B   6,B   3,B   1)    -26.4246         0.010000   
    131. D(B   4,B   6,B   3,B   5)     42.0945         0.010000   
    132. D(B   4,B   6,B   3,B   0)      6.3613         0.010000   
    133. D(B   4,B   6,B   3,B   1)    127.2699         0.010000   
    134. D(B  11,B   6,B   4,B   5)     76.4120         0.010000   
    135. D(B  11,B   6,B   4,B   3)    112.2909         0.010000   
    136. D(B   7,B   6,B   4,B   5)     33.8404         0.010000   
    137. D(B   7,B   6,B   4,B   3)     69.7193         0.010000   
    138. D(B   7,B   6,B   3,B   4)   -153.6945         0.010000   
    139. D(B   7,B   6,B   3,B   5)   -111.6001         0.010000   
    140. D(B   3,B   6,B   4,B   5)    -35.8789         0.010000   
    141. D(B   7,B   6,B   3,B   0)   -147.3332         0.010000   
    142. D(B  10,B   7,B   6,B   3)     54.6195         0.010000   
    143. D(B  10,B   7,B   6,B  11)    -47.1906         0.010000   
    144. D(B  10,B   7,B   6,B   4)     -3.2165         0.010000   
    145. D(B  10,B   8,B   1,B   0)    154.1957         0.010000   
    146. D(B  10,B   8,B   1,B   5)    149.6092         0.010000   
    147. D(B  10,B   8,B   1,B   3)     98.7681         0.010000   
    148. D(B  11,B  10,B   8,B   1)    -80.5627         0.010000   
    149. D(B   7,B  10,B   8,B   1)    -49.7546         0.010000   
    150. D(B   9,B  10,B   8,B   1)   -171.2242         0.010000   
    151. D(B  11,B  10,B   7,B   6)     33.9734         0.010000   
    152. D(B   9,B  10,B   7,B   6)     88.5631         0.010000   
    153. D(B   8,B  10,B   7,B   6)     -3.4001         0.010000   
    154. D(B   6,B  11,B  10,B   7)    -40.0803         0.010000   
    155. D(B   6,B  11,B  10,B   9)   -178.7835         0.010000   
    156. D(B   6,B  11,B  10,B   8)    109.6375         0.010000   
    157. D(B  10,B  11,B   6,B   3)    -70.1818         0.010000   
    158. D(B  10,B  11,B   6,B   7)     37.4285         0.010000   
    159. D(B  10,B  11,B   6,B   4)   -124.5831         0.010000   
    -----------------------------------------------------------------

Number of atoms                         .... 12
Number of degrees of freedom            .... 159


         *************************************************************
         *                GEOMETRY OPTIMIZATION CYCLE   1            *
         *************************************************************
---------------------------------
CARTESIAN COORDINATES (ANGSTROEM)
---------------------------------
  B    -0.791612    2.536201   -2.166249
  B     0.205111    1.498150    0.350261
  B    -2.127177    3.092084   -1.348017
  B     0.702013    1.443881   -0.883210
  B     0.835890   -0.809170   -1.839951
  B    -1.637705    1.140511   -1.535998
  B     1.875836   -1.177427   -0.548013
  B     2.296385   -1.515883    1.398354
  B    -1.372569   -0.522656    1.498495
  B    -0.912755   -2.335127    2.678814
  B     0.331447   -1.154172    2.411264
  B     0.595136   -2.196393   -0.015750

----------------------------
CARTESIAN COORDINATES (A.U.)
----------------------------
  NO LB    ZA    FRAG    MASS        X           Y           Z
   0 B   5.0000    0    10.810   -1.495931    4.792725   -4.093617
   1 B   5.0000    0    10.810    0.387603    2.831093    0.661898
   2 B   5.0000    0    10.810   -4.019781    5.843192   -2.547382
   3 B   5.0000    0    10.810    1.326612    2.728539   -1.669026
   4 B   5.0000    0    10.810    1.579603   -1.529109   -3.477004
   5 B   5.0000    0    10.810   -3.094813    2.155254   -2.902615
   6 B   5.0000    0    10.810    3.544817   -2.225014   -1.035595
   7 B   5.0000    0    10.810    4.339538   -2.864604    2.642506
   8 B   5.0000    0    10.810   -2.593779   -0.987676    2.831744
   9 B   5.0000    0    10.810   -1.724856   -4.412750    5.062224
  10 B   5.0000    0    10.810    0.626344   -2.181068    4.556630
  11 B   5.0000    0    10.810    1.124643   -4.150581   -0.029763

      -----------------------------------------------------------      
     |                   =====================                   |     
     |                           x T B                           |     
     |                   =====================                   |     
     |                         S. Grimme                         |     
     |          Mulliken Center for Theoretical Chemistry        |     
     |                    University of Bonn                     |     
      -----------------------------------------------------------      

   * xtb version 6.6.1 (unknown) compiled by 'builduser@buildhost' on 2023-08-07

   xtb is free software: you can redistribute it and/or modify it under
   the terms of the GNU Lesser General Public License as published by
   the Free Software Foundation, either version 3 of the License, or
   (at your option) any later version.
   
   xtb is distributed in the hope that it will be useful,
   but WITHOUT ANY WARRANTY; without even the implied warranty of
   MERCHANTABILITY or FITNESS FOR A PARTICULAR PURPOSE.  See the
   GNU Lesser General Public License for more details.
   
   Cite this work as:
   * C. Bannwarth, E. Caldeweyher, S. Ehlert, A. Hansen, P. Pracht,
     J. Seibert, S. Spicher, S. Grimme, WIREs Comput. Mol. Sci., 2020, 11,
     e01493. DOI: 10.1002/wcms.1493
   
   for GFN2-xTB:
   * C. Bannwarth, S. Ehlert and S. Grimme., J. Chem. Theory Comput., 2019,
     15, 1652-1671. DOI: 10.1021/acs.jctc.8b01176
   for GFN1-xTB:
   * S. Grimme, C. Bannwarth, P. Shushkov, J. Chem. Theory Comput., 2017,
     13, 1989-2009. DOI: 10.1021/acs.jctc.7b00118
   for GFN0-xTB:
   * P. Pracht, E. Caldeweyher, S. Ehlert, S. Grimme, ChemRxiv, 2019, preprint.
     DOI: 10.26434/chemrxiv.8326202.v1
   for GFN-FF:
   * S. Spicher and S. Grimme, Angew. Chem. Int. Ed., 2020, 59, 15665-15673.
     DOI: 10.1002/anie.202004239
   
   for ALPB and GBSA implicit solvation:
   * S. Ehlert, M. Stahn, S. Spicher, S. Grimme, J. Chem. Theory Comput.,
     2021, 17, 4250-4261. DOI: 10.1021/acs.jctc.1c00471
   
   for DFT-D4:
   * E. Caldeweyher, C. Bannwarth and S. Grimme, J. Chem. Phys., 2017,
     147, 034112. DOI: 10.1063/1.4993215
   * E. Caldeweyher, S. Ehlert, A. Hansen, H. Neugebauer, S. Spicher,
     C. Bannwarth and S. Grimme, J. Chem. Phys., 2019, 150, 154122.
     DOI: 10.1063/1.5090222
   * E. Caldeweyher, J.-M. Mewes, S. Ehlert and S. Grimme, Phys. Chem. Chem. Phys.
     2020, 22, 8499-8512. DOI: 10.1039/D0CP00502A
   
   for sTDA-xTB:
   * S. Grimme and C. Bannwarth, J. Chem. Phys., 2016, 145, 054103.
     DOI: 10.1063/1.4959605
   
   in the mass-spec context:
   * V. Asgeirsson, C. Bauer and S. Grimme, Chem. Sci., 2017, 8, 4879.
     DOI: 10.1039/c7sc00601b
   * J. Koopman and S. Grimme, ACS Omega 2019, 4, 12, 15120-15133.
     DOI: 10.1021/acsomega.9b02011
   
   for metadynamics refer to:
   * S. Grimme, J. Chem. Theory Comput., 2019, 155, 2847-2862
     DOI: 10.1021/acs.jctc.9b00143
   
   for SPH calculations refer to:
   * S. Spicher and S. Grimme, J. Chem. Theory Comput., 2021, 17, 1701-1714
     DOI: 10.1021/acs.jctc.0c01306
   
   with help from (in alphabetical order)
   P. Atkinson, C. Bannwarth, F. Bohle, G. Brandenburg, E. Caldeweyher
   M. Checinski, S. Dohm, S. Ehlert, S. Ehrlich, I. Gerasimov, C. Hölzer
   A. Katbashev, J. Koopman, C. Lavigne, S. Lehtola, F. März, M. Müller,
   F. Musil, H. Neugebauer, J. Pisarek, C. Plett, P. Pracht, F. Pultar,
   J. Seibert, P. Shushkov, S. Spicher, M. Stahn, M. Steiner, T. Strunk,
   J. Stückrath, T. Rose, and J. Unsleber
   
 * started run on 2026/04/17 at 12:14:55.865     

           -------------------------------------------------
          |                Calculation Setup                |
           -------------------------------------------------

          program call               : /usr/bin/xtb random_d2.10_010_m3_XTB.xyz --grad -c 0 -u 2 -P 1 --namespace random_d2.10_010_m3 --input random_d2.10_010_m3_XTB.input.tmp --acc 0.200000
          calculation namespace      : random_d2.10_010_m3
          coordinate file            : random_d2.10_010_m3_XTB.xyz
          omp threads                :                     1

   ID    Z sym.   atoms
    1    5 B      1-12

molecular fragmentation (1/2 indicates fragments):
121221222222
# atoms in fragment 1/2:     3     9
 fragment masses (1/2) :       32.43       97.30
CMA distance (Bohr)    :   8.059
constraining FC (au)   :  0.0500

           -------------------------------------------------
          |                 G F N 2 - x T B                 |
           -------------------------------------------------

        Reference                      10.1021/acs.jctc.8b01176
      * Hamiltonian:
        H0-scaling (s, p, d)           1.850000    2.230000    2.230000
        zeta-weighting                 0.500000
      * Dispersion:
        s8                             2.700000
        a1                             0.520000
        a2                             5.000000
        s9                             5.000000
      * Repulsion:
        kExp                           1.500000    1.000000
        rExp                           1.000000
      * Coulomb:
        alpha                          2.000000
        third order                    shell-resolved
        anisotropic                    true
        a3                             3.000000
        a5                             4.000000
        cn-shift                       1.200000
        cn-exp                         4.000000
        max-rad                        5.000000


          ...................................................
          :                      SETUP                      :
          :.................................................:
          :  # basis functions                  48          :
          :  # atomic orbitals                  48          :
          :  # shells                           24          :
          :  # electrons                        36          :
          :  max. iterations                   250          :
          :  Hamiltonian                  GFN2-xTB          :
          :  restarted?                      false          :
          :  GBSA solvation                  false          :
          :  PC potential                    false          :
          :  electronic temp.          300.0000000     K    :
          :  accuracy                    0.2000000          :
          :  -> integral cutoff          0.3198970E+02      :
          :  -> integral neglect         0.2000000E-08      :
          :  -> SCF convergence          0.2000000E-06 Eh   :
          :  -> wf. convergence          0.2000000E-04 e    :
          :  Broyden damping             0.4000000          :
          ...................................................

 iter      E             dE          RMSdq      gap      omega  full diag
   1    -13.0863060 -0.130863E+02  0.191E+01    0.05       0.0  T
   2     -1.4692488  0.116171E+02  0.200E+01    0.20       1.0  T
   3     12.2207554  0.136900E+02  0.249E+01    0.62       1.0  T
   4     -0.0647569 -0.122855E+02  0.207E+01    0.60       1.0  T
   5     -3.2608614 -0.319610E+01  0.166E+01    0.21       1.0  T
   6     -5.2260541 -0.196519E+01  0.155E+01    0.12       1.0  T
   7    -10.8976520 -0.567160E+01  0.110E+01    0.34       1.0  T
   8    -11.1537769 -0.256125E+00  0.990E+00    0.03       1.0  T
   9    -12.1397740 -0.985997E+00  0.781E+00    0.16       1.0  T
  10    -12.8478272 -0.708053E+00  0.666E+00    0.24       1.0  T
  11    -12.7894331  0.583941E-01  0.643E+00    0.13       1.0  T
  12    -13.0102008 -0.220768E+00  0.600E+00    0.09       1.0  T
  13    -13.1032224 -0.930216E-01  0.541E+00    0.07       1.0  T
  14    -13.1312311 -0.280087E-01  0.526E+00    0.08       1.0  T
  15    -13.1516543 -0.204232E-01  0.506E+00    0.09       1.0  T
  16    -13.2658337 -0.114179E+00  0.418E+00    0.09       1.0  T
  17    -13.3025456 -0.367119E-01  0.371E+00    0.06       1.0  T
  18    -13.3246484 -0.221028E-01  0.366E+00    0.08       1.0  T
  19    -13.3449080 -0.202597E-01  0.341E+00    0.09       1.0  T
  20    -13.3420667  0.284131E-02  0.343E+00    0.09       1.0  T
  21    -13.3219177  0.201490E-01  0.359E+00    0.08       1.0  T
  22    -13.3249263 -0.300859E-02  0.356E+00    0.08       1.0  T
  23    -13.1881618  0.136765E+00  0.390E+00    0.02       1.0  T
  24    -13.3168715 -0.128710E+00  0.267E+00    0.04       1.0  T
  25    -13.4011235 -0.842520E-01  0.171E+00    0.07       1.0  T
  26    -13.4082751 -0.715160E-02  0.159E+00    0.07       1.0  T
  27    -13.4334483 -0.251732E-01  0.109E+00    0.08       1.0  T
  28    -13.4337962 -0.347978E-03  0.108E+00    0.08       1.0  T
  29    -13.4340496 -0.253374E-03  0.103E+00    0.07       1.0  T
  30    -13.4385365 -0.448686E-02  0.777E-01    0.08       1.0  T
  31    -13.4385922 -0.557611E-04  0.756E-01    0.07       1.0  T
  32    -13.4405075 -0.191524E-02  0.543E-01    0.08       1.0  T
  33    -13.4374800  0.302745E-02  0.615E-01    0.07       1.0  T
  34    -13.4388282 -0.134816E-02  0.537E-01    0.07       1.0  T
  35    -13.4410323 -0.220414E-02  0.358E-01    0.07       1.0  T
  36    -13.4415148 -0.482521E-03  0.307E-01    0.07       1.0  T
  37    -13.4421200 -0.605166E-03  0.224E-01    0.08       1.0  T
  38    -13.4422775 -0.157519E-03  0.199E-01    0.08       1.0  T
  39    -13.4425664 -0.288907E-03  0.107E-01    0.08       1.0  T
  40    -13.4425945 -0.280971E-04  0.896E-02    0.08       1.0  T
  41    -13.4426590 -0.644203E-04  0.464E-02    0.08       1.0  T
  42    -13.4426532  0.572128E-05  0.505E-02    0.08       1.0  T
  43    -13.4426457  0.756914E-05  0.481E-02    0.08       1.0  T
  44    -13.4426662 -0.205482E-04  0.165E-02    0.08       1.7  T
  45    -13.4426668 -0.554924E-06  0.159E-02    0.08       1.8  T
  46    -13.4426696 -0.281188E-05  0.602E-03    0.08       4.8  T
  47    -13.4426696 -0.561819E-07  0.474E-03    0.08       6.1  T
  48    -13.4426699 -0.241074E-06  0.287E-03    0.08      10.1  T
  49    -13.4426699 -0.966353E-08  0.227E-03    0.08      12.7  T
  50    -13.4426699 -0.212830E-07  0.129E-03    0.08      22.4  T
  51    -13.4426699 -0.142552E-07  0.716E-04    0.08      40.3  T
  52    -13.4426699 -0.419727E-08  0.398E-04    0.08      72.5  T
  53    -13.4426699 -0.163330E-08  0.159E-04    0.08     181.9  T
  54    -13.4426699  0.330491E-10  0.133E-04    0.08     217.0  T

   *** convergence criteria satisfied after 54 iterations ***

         #    Occupation            Energy/Eh            Energy/eV
      -------------------------------------------------------------
         1        2.0000           -0.4047007             -11.0125
       ...           ...                  ...                  ...
        13        2.0000           -0.2688799              -7.3166
        14        2.0000           -0.2568342              -6.9888
        15        2.0000           -0.2515795              -6.8458
        16        2.0000           -0.2483238              -6.7572
        17        1.6890           -0.2369956              -6.4490
        18        1.3106           -0.2354830              -6.4078
        19        0.7966           -0.2284451              -6.2163 (HOMO)
        20        0.1553           -0.2255404              -6.1373 (LUMO)
        21        0.0485           -0.2243212              -6.1041
        22        0.0001           -0.2179327              -5.9302
        23                         -0.2065350              -5.6201
        24                         -0.2036239              -5.5409
       ...                                ...                  ...
        48                          1.7461647              47.5156
      -------------------------------------------------------------
                  HL-Gap            0.0029047 Eh            0.0790 eV
             Fermi-level           -0.2316947 Eh           -6.3047 eV

 transition dipole moment (au) for excitation:          18          19
     X       Y       Z   
   0.6017  -0.4111  -0.9071  total (au/Debye):    1.164   2.958
 dE (eV)             :    0.192
 oscillator strength :  0.89834E-02

 SCC (total)                   0 d,  0 h,  0 min,  0.077 sec
 SCC setup                      ...        0 min,  0.000 sec (  0.151%)
 Dispersion                     ...        0 min,  0.000 sec (  0.130%)
 classical contributions        ...        0 min,  0.000 sec (  0.035%)
 integral evaluation            ...        0 min,  0.003 sec (  3.965%)
 iterations                     ...        0 min,  0.063 sec ( 81.572%)
 molecular gradient             ...        0 min,  0.007 sec (  8.537%)
 printout                       ...        0 min,  0.004 sec (  5.582%)

         :::::::::::::::::::::::::::::::::::::::::::::::::::::
         ::                     SUMMARY                     ::
         :::::::::::::::::::::::::::::::::::::::::::::::::::::
         :: total energy             -13.327663110392 Eh    ::
         :: gradient norm              0.393211336018 Eh/a0 ::
         :: HOMO-LUMO gap              0.079041039939 eV    ::
         ::.................................................::
         :: SCC energy               -13.442669928786 Eh    ::
         :: -> isotropic ES            0.068186743596 Eh    ::
         :: -> anisotropic ES          0.004454549661 Eh    ::
         :: -> anisotropic XC         -0.026185331262 Eh    ::
         :: -> dispersion             -0.019512087389 Eh    ::
         :: repulsion energy           0.114930517578 Eh    ::
         :: add. restraining           0.000000000000 Eh    ::
         :: total charge              -0.000000000070 e     ::
         :::::::::::::::::::::::::::::::::::::::::::::::::::::


Property printout bound to 'properties.out'

           -------------------------------------------------
          | TOTAL ENERGY              -13.327663110392 Eh   |
          | GRADIENT NORM               0.393211336018 Eh/α |
          | HOMO-LUMO GAP               0.079041039939 eV   |
           -------------------------------------------------

------------------------------------------------------------------------
 * finished run on 2026/04/17 at 12:14:55.961     
------------------------------------------------------------------------
 total:
 * wall-time:     0 d,  0 h,  0 min,  0.096 sec
 *  cpu-time:     0 d,  0 h,  0 min,  0.091 sec
 * ratio c/w:     0.944 speedup
 SCF:
 * wall-time:     0 d,  0 h,  0 min,  0.078 sec
 *  cpu-time:     0 d,  0 h,  0 min,  0.077 sec
 * ratio c/w:     0.996 speedup


-------------------------   --------------------
FINAL SINGLE POINT ENERGY       -13.327663110390
-------------------------   --------------------


-------------
DIPOLE MOMENT
-------------
                                X             Y             Z
Total Dipole Moment    :     -0.22700      -0.43000      -0.10700
                        -----------------------------------------
Magnitude (a.u.)       :      0.49787
Magnitude (Debye)      :      1.26549


------------------
CARTESIAN GRADIENT
------------------

   1   B   :    0.060874222    0.026379428   -0.070917701
   2   B   :    0.081794690    0.015963970   -0.159511948
   3   B   :   -0.064885290    0.066916322    0.043890639
   4   B   :   -0.028112057    0.019665872    0.190879745
   5   B   :   -0.039645243   -0.005573069   -0.090449094
   6   B   :   -0.034679447   -0.079665025   -0.000080152
   7   B   :    0.057030054    0.031865068   -0.008926006
   8   B   :    0.081925241   -0.019080728    0.045687099
   9   B   :   -0.063377180    0.040389046   -0.035087441
  10   B   :   -0.040206869   -0.102283191    0.048988668
  11   B   :    0.030657181    0.065862628    0.041149157
  12   B   :   -0.041375300   -0.060440321   -0.005622965

Difference to translation invariance:
           :   -0.0000000000    0.0000000000    0.0000000000

Difference to rotation invariance:
           :   -0.0000000057    0.0000000429    0.0000000730

Norm of the Cartesian gradient     ...    0.3932113360
RMS gradient                       ...    0.0655352227
MAX gradient                       ...    0.1908797448
------------------------------------------------------------------------------
                         ORCA GEOMETRY RELAXATION STEP
------------------------------------------------------------------------------

Reading the OPT-File                    .... done
Getting information on internals        .... done
Copying old internal coords+grads       .... done
Making the new internal coordinates     .... (2022 redundants) done
Validating the new internal coordinates .... (2022 redundants) done
Calculating the B-matrix                .... done
Calculating the G,G- and P matrices     .... done
Transforming gradient to internals      .... done
Projecting the internal gradient        .... done
Number of atoms                         ....  12
Number of internal coordinates          .... 159
Current Energy                          ....   -13.327663110 Eh
Current gradient norm                   ....     0.393211336 Eh/bohr
Maximum allowed component of the step   ....  0.300
Current trust radius                    ....  0.300
Evaluating the initial hessian          ....  (Almloef) done
Projecting the Hessian                  .... done
Forming the augmented Hessian           .... done
Diagonalizing the augmented Hessian     .... done
Last element of RFO vector              ....  0.794798806
Lowest eigenvalues of augmented Hessian:
 -0.199542453  0.012695444  0.016470593  0.017602920  0.019553439
Length of the computed step             ....  0.763555522
Warning: the length of the step is outside the trust region - taking restricted step instead
The input lambda is                     ....     0.010864
   iter:   5  x=    0.001218  g=10266.345580 f(x)=    45.323703
   iter:  10  x=   -0.190601  g=   13.571498 f(x)=     1.184255
   iter:  15  x=   -0.720320  g=    0.212278 f(x)=     0.002917
The output lambda is                    ....    -0.720659 (19 iterations)
The final length of the internal step   ....  0.300000000
Converting the step to Cartesian space:
 Initial RMS(Int)=    0.0237915476
Transforming coordinates:
 Iter   0:  RMS(Cart)=    0.0639075191 RMS(Int)=    0.4949448205
 Iter   5:  RMS(Cart)=    0.0000000337 RMS(Int)=    0.0000000103
done
Storing new coordinates                 .... done

                                .--------------------.
          ----------------------|Geometry convergence|-------------------------
          Item                value                   Tolerance       Converged
          ---------------------------------------------------------------------
          RMS gradient        0.0220649914            0.0000300000      NO
          MAX gradient        0.1059369289            0.0001000000      NO
          RMS step            0.0237915476            0.0006000000      NO
          MAX step            0.1108510891            0.0010000000      NO
          -------------------------------------------------------------------------
          ........................................................
          Max(Bonds)      0.0587      Max(Angles)    4.92
          Max(Dihed)        4.02      Max(Improp)    0.00
          ---------------------------------------------------------------------

The optimization has not yet converged - more geometry cycles are needed


    ---------------------------------------------------------------------------
                         Redundant Internal Coordinates
                            (Angstroem and degrees)

        Definition                    Value    dE/dq     Step     New-Value
    ----------------------------------------------------------------------------
     1. B(B   1,B   0)                2.8989 -0.019726  0.0045    2.9034   
     2. B(B   2,B   0)                1.6620  0.056362 -0.0316    1.6304   
     3. B(B   3,B   0)                2.2517  0.034410 -0.0185    2.2333   
     4. B(B   3,B   1)                1.3309 -0.096962  0.0379    1.3688   
     5. B(B   4,B   3)                2.4514  0.023560 -0.0151    2.4363   
     6. B(B   5,B   1)                2.6612 -0.003882 -0.0011    2.6600   
     7. B(B   5,B   0)                1.7496  0.036480 -0.0216    1.7279   
     8. B(B   5,B   2)                2.0208  0.053743 -0.0323    1.9885   
     9. B(B   5,B   4)                3.1642  0.006187 -0.0065    3.1577   
    10. B(B   5,B   3)                2.4479  0.024706 -0.0148    2.4331   
    11. B(B   6,B   3)                2.8916  0.021200 -0.0125    2.8791   
    12. B(B   6,B   4)                1.6989  0.074556 -0.0415    1.6574   
    13. B(B   7,B   6)                2.0198  0.060801 -0.0410    1.9789   
    14. B(B   8,B   1)                2.8091  0.032734 -0.0219    2.7872   
    15. B(B  10,B   8)                2.0336  0.073870 -0.0496    1.9841   
    16. B(B  10,B   7)                2.2400  0.045502 -0.0333    2.2067   
    17. B(B  10,B   9)                1.7362  0.105937 -0.0587    1.6775   
    18. B(B  11,B  10)                2.6545  0.026734 -0.0210    2.6335   
    19. B(B  11,B   6)                1.7210  0.063457 -0.0361    1.6849   
    20. A(B   1,B   0,B   3)           26.31 -0.018243    0.79     27.10   
    21. A(B   2,B   0,B   5)           72.59 -0.000240   -0.05     72.55   
    22. A(B   1,B   0,B   2)           88.21  0.006838   -0.25     87.95   
    23. A(B   3,B   0,B   5)           74.25 -0.005888    0.32     74.57   
    24. A(B   2,B   0,B   3)          114.50 -0.011419    0.54    115.05   
    25. A(B   1,B   0,B   5)           64.40  0.001598   -0.02     64.38   
    26. A(B   3,B   1,B   5)           66.18  0.015281   -0.77     65.41   
    27. A(B   0,B   1,B   8)          114.79 -0.001413    0.13    114.92   
    28. A(B   0,B   1,B   5)           36.36  0.009256   -0.51     35.85   
    29. A(B   3,B   1,B   8)          124.00  0.006213   -0.28    123.72   
    30. A(B   0,B   1,B   3)           48.58  0.011045   -0.56     48.02   
    31. A(B   5,B   1,B   8)           78.70 -0.009966    0.60     79.30   
    32. A(B   0,B   2,B   5)           55.71 -0.004568    0.28     55.99   
    33. A(B   1,B   3,B   6)           94.65  0.001508   -0.12     94.54   
    34. A(B   0,B   3,B   5)           43.46  0.003822   -0.26     43.21   
    35. A(B   4,B   3,B   5)           80.46 -0.007069    0.39     80.85   
    36. A(B   0,B   3,B   4)          105.05 -0.010896    0.55    105.60   
    37. A(B   1,B   3,B   5)           83.99  0.006017   -0.17     83.83   
    38. A(B   1,B   3,B   4)          114.81  0.010801   -0.60    114.21   
    39. A(B   0,B   3,B   1)          105.11  0.007198   -0.23    104.88   
    40. A(B   4,B   3,B   6)           35.90  0.013355   -0.79     35.10   
    41. A(B   0,B   3,B   6)          140.81  0.002925   -0.26    140.55   
    42. A(B   5,B   3,B   6)          107.85  0.003865   -0.23    107.62   
    43. A(B   3,B   4,B   6)           86.32 -0.013856    0.87     87.19   
    44. A(B   3,B   4,B   5)           49.72  0.003679   -0.19     49.53   
    45. A(B   5,B   4,B   6)          122.62 -0.008213    0.58    123.20   
    46. A(B   1,B   5,B   4)           67.02 -0.007169    0.21     67.23   
    47. A(B   2,B   5,B   3)           94.99 -0.001164    0.08     95.07   
    48. A(B   0,B   5,B   3)           62.29  0.002066   -0.06     62.23   
    49. A(B   0,B   5,B   2)           51.70  0.004808   -0.24     51.46   
    50. A(B   3,B   5,B   4)           49.82  0.003390   -0.20     49.62   
    51. A(B   2,B   5,B   4)          142.50  0.000923   -0.04    142.46   
    52. A(B   1,B   5,B   3)           29.83 -0.021297    0.94     30.76   
    53. A(B   0,B   5,B   4)           94.52 -0.003088    0.17     94.70   
    54. A(B   1,B   5,B   2)           88.40  0.000013    0.08     88.48   
    55. A(B   0,B   5,B   1)           79.24 -0.010854    0.53     79.77   
    56. A(B   3,B   6,B  11)          105.69  0.011800   -0.87    104.82   
    57. A(B   3,B   6,B   7)          110.37  0.006292   -0.36    110.01   
    58. A(B   3,B   6,B   4)           57.78  0.000501   -0.08     57.70   
    59. A(B   7,B   6,B  11)           75.98  0.001142   -0.04     75.94   
    60. A(B   4,B   6,B  11)           84.72  0.010699   -0.76     83.97   
    61. A(B   4,B   6,B   7)          153.71  0.012787   -0.83    152.88   
    62. A(B   6,B   7,B  10)          103.06 -0.016284    1.07    104.13   
    63. A(B   1,B   8,B  10)           86.35  0.017901   -0.86     85.49   
    64. A(B   7,B  10,B  11)           55.67  0.012058   -0.68     54.98   
    65. A(B   9,B  10,B  11)           86.85  0.005239   -0.55     86.30   
    66. A(B   8,B  10,B  11)           78.16 -0.011019    0.51     78.67   
    67. A(B   8,B  10,B   9)           71.33  0.074271   -4.92     66.41   
    68. A(B   7,B  10,B   9)          126.05 -0.020011    1.34    127.39   
    69. A(B   7,B  10,B   8)          125.61 -0.014336    0.76    126.37   
    70. A(B   6,B  11,B  10)           97.14 -0.007722    0.29     97.43   
    71. D(B   5,B   1,B   0,B   2)     71.53 -0.003448    0.07     71.60   
    72. D(B   3,B   1,B   0,B   2)    178.38 -0.001561    0.04    178.42   
    73. D(B   3,B   1,B   0,B   5)    106.85  0.001886   -0.03    106.82   
    74. D(B   5,B   1,B   0,B   3)   -106.85 -0.001886    0.03   -106.82   
    75. D(B   8,B   1,B   0,B   5)     -7.60 -0.008672    0.50     -7.10   
    76. D(B   8,B   1,B   0,B   2)     63.93 -0.012120    0.57     64.50   
    77. D(B   5,B   2,B   0,B   1)    -63.69  0.000629   -0.05    -63.74   
    78. D(B   5,B   2,B   0,B   3)    -62.90  0.000808   -0.05    -62.95   
    79. D(B   4,B   3,B   1,B   0)   -114.91  0.003135   -0.22   -115.12   
    80. D(B   4,B   3,B   0,B   2)    119.73  0.008990   -0.49    119.23   
    81. D(B   4,B   3,B   1,B   5)    -76.57  0.007290   -0.49    -77.06   
    82. D(B   5,B   3,B   0,B   2)     61.96  0.002200   -0.15     61.81   
    83. D(B   4,B   3,B   1,B   8)    -20.35  0.002597   -0.14    -20.49   
    84. D(B   4,B   3,B   0,B   1)    121.51  0.010550   -0.53    120.98   
    85. D(B   5,B   3,B   0,B   1)     63.74  0.003760   -0.19     63.55   
    86. D(B   5,B   3,B   1,B   8)     56.22 -0.004693    0.35     56.57   
    87. D(B   5,B   3,B   1,B   0)    -38.34 -0.004155    0.27    -38.06   
    88. D(B   1,B   3,B   0,B   2)     -1.78 -0.001560    0.04     -1.75   
    89. D(B   0,B   3,B   1,B   8)     94.56 -0.000538    0.08     94.63   
    90. D(B   1,B   3,B   0,B   5)    -63.74 -0.003760    0.19    -63.55   
    91. D(B   0,B   3,B   1,B   5)     38.34  0.004155   -0.27     38.06   
    92. D(B   4,B   3,B   0,B   5)     57.77  0.006790   -0.34     57.43   
    93. D(B   5,B   4,B   3,B   6)    139.68  0.001114   -0.01    139.67   
    94. D(B   6,B   4,B   3,B   0)   -175.84 -0.008058    0.41   -175.43   
    95. D(B   6,B   4,B   3,B   1)    -60.90 -0.000708    0.18    -60.73   
    96. D(B   6,B   4,B   3,B   5)   -139.68 -0.001114    0.01   -139.67   
    97. D(B   5,B   4,B   3,B   0)    -36.16 -0.006944    0.40    -35.76   
    98. D(B   5,B   4,B   3,B   1)     78.78  0.000406    0.17     78.95   
    99. D(B   3,B   5,B   0,B   2)   -122.69  0.010055   -0.49   -123.17   
   100. D(B   2,B   5,B   0,B   1)     96.54  0.007526   -0.26     96.27   
   101. D(B   2,B   5,B   0,B   3)    122.69 -0.010055    0.49    123.17   
   102. D(B   2,B   5,B   4,B   3)     24.01  0.006539   -0.38     23.64   
   103. D(B   2,B   5,B   4,B   6)     74.06 -0.002367    0.14     74.21   
   104. D(B   0,B   5,B   4,B   6)     97.41  0.001130    0.03     97.44   
   105. D(B   1,B   5,B   3,B   0)   -119.48 -0.001276   -0.02   -119.50   
   106. D(B   2,B   5,B   3,B   6)    170.91 -0.004556    0.30    171.22   
   107. D(B   2,B   5,B   3,B   4)   -165.60  0.003433   -0.20   -165.80   
   108. D(B   2,B   5,B   3,B   0)    -41.53 -0.008987    0.44    -41.09   
   109. D(B   2,B   5,B   3,B   1)     77.94 -0.007711    0.46     78.40   
   110. D(B   0,B   5,B   3,B   6)   -147.56  0.004431   -0.13   -147.69   
   111. D(B   0,B   5,B   3,B   1)    119.48  0.001276    0.02    119.50   
   112. D(B   4,B   5,B   2,B   0)     30.23  0.002650   -0.05     30.18   
   113. D(B   1,B   5,B   2,B   0)     77.53 -0.013230    0.58     78.11   
   114. D(B   3,B   5,B   2,B   0)     48.41  0.008378   -0.38     48.03   
   115. D(B   3,B   5,B   1,B   8)   -135.36 -0.005274    0.30   -135.05   
   116. D(B   0,B   5,B   3,B   4)   -124.07  0.012420   -0.64   -124.71   
   117. D(B   3,B   5,B   1,B   0)     51.68  0.003071   -0.18     51.49   
   118. D(B   2,B   5,B   1,B   8)    121.71 -0.012002    0.69    122.39   
   119. D(B   2,B   5,B   1,B   0)    -51.26 -0.003657    0.20    -51.06   
   120. D(B   2,B   5,B   1,B   3)   -102.94 -0.006728    0.38   -102.55   
   121. D(B   0,B   5,B   1,B   8)    172.97 -0.008345    0.49    173.45   
   122. D(B   0,B   5,B   1,B   3)    -51.68 -0.003071    0.18    -51.49   
   123. D(B   4,B   5,B   0,B   2)   -162.10  0.001002   -0.00   -162.10   
   124. D(B   0,B   5,B   4,B   3)     47.36  0.010035   -0.49     46.87   
   125. D(B   1,B   5,B   0,B   3)     26.15 -0.017581    0.75     26.90   
   126. D(B   1,B   5,B   0,B   2)    -96.54 -0.007526    0.26    -96.27   
   127. D(B   3,B   5,B   4,B   6)     50.05 -0.008906    0.52     50.57   
   128. D(B   1,B   5,B   4,B   6)     21.12  0.013007   -0.52     20.61   
   129. D(B   3,B   5,B   0,B   1)    -26.15  0.017581   -0.75    -26.90   
   130. D(B   7,B   6,B   3,B   1)    -26.42 -0.005791    0.55    -25.88   
   131. D(B   4,B   6,B   3,B   5)     42.09 -0.001135    0.00     42.10   
   132. D(B   4,B   6,B   3,B   0)      6.36 -0.011632    0.58      6.94   
   133. D(B   4,B   6,B   3,B   1)    127.27  0.005882   -0.22    127.05   
   134. D(B  11,B   6,B   4,B   5)     76.41  0.009199   -0.66     75.75   
   135. D(B  11,B   6,B   4,B   3)    112.29  0.006703   -0.51    111.79   
   136. D(B   7,B   6,B   4,B   5)     33.84  0.002319   -0.13     33.71   
   137. D(B   7,B   6,B   4,B   3)     69.72 -0.000177    0.03     69.75   
   138. D(B   7,B   6,B   3,B   4)   -153.69 -0.011674    0.77   -152.93   
   139. D(B   7,B   6,B   3,B   5)   -111.60 -0.012808    0.77   -110.83   
   140. D(B   3,B   6,B   4,B   5)    -35.88  0.002496   -0.16    -36.03   
   141. D(B   7,B   6,B   3,B   0)   -147.33 -0.023306    1.35   -145.98   
   142. D(B  10,B   7,B   6,B   3)     54.62  0.009429   -0.79     53.83   
   143. D(B  10,B   7,B   6,B  11)    -47.19 -0.002588    0.10    -47.09   
   144. D(B  10,B   7,B   6,B   4)     -3.22  0.005316   -0.52     -3.73   
   145. D(B  10,B   8,B   1,B   0)    154.20  0.025798   -1.32    152.87   
   146. D(B  10,B   8,B   1,B   5)    149.61  0.019416   -0.96    148.65   
   147. D(B  10,B   8,B   1,B   3)     98.77  0.012544   -0.68     98.09   
   148. D(B  11,B  10,B   8,B   1)    -80.56  0.000332   -0.03    -80.60   
   149. D(B   7,B  10,B   8,B   1)    -49.75  0.028568   -1.76    -51.51   
   150. D(B   9,B  10,B   8,B   1)   -171.22  0.006804   -0.32   -171.55   
   151. D(B  11,B  10,B   7,B   6)     33.97  0.005815   -0.26     33.72   
   152. D(B   9,B  10,B   7,B   6)     88.56  0.059174   -4.02     84.54   
   153. D(B   8,B  10,B   7,B   6)     -3.40 -0.022298    1.51     -1.89   
   154. D(B   6,B  11,B  10,B   7)    -40.08 -0.006613    0.47    -39.61   
   155. D(B   6,B  11,B  10,B   9)   -178.78  0.039250   -2.72   -181.50   
   156. D(B   6,B  11,B  10,B   8)    109.64 -0.035449    2.20    111.84   
   157. D(B  10,B  11,B   6,B   3)    -70.18  0.003303   -0.30    -70.48   
   158. D(B  10,B  11,B   6,B   7)     37.43  0.008135   -0.54     36.89   
   159. D(B  10,B  11,B   6,B   4)   -124.58  0.002069   -0.18   -124.76   
    ----------------------------------------------------------------------------

Geometry step timings:
Preparation and reading OPT file:      0.000 s ( 0.500 %)
Internal coordinates            :      0.000 s ( 0.522 %)
B/P matrices and projection     :      0.002 s (20.128 %)
Hessian update/contruction      :      0.001 s (16.212 %)
Making the step                 :      0.004 s (44.620 %)
Converting the step to Cartesian:      0.000 s ( 2.459 %)
Storing new data                :      0.000 s ( 0.870 %)
Checking convergence            :      0.000 s ( 1.175 %)
Final printing                  :      0.001 s (13.491 %)
Total time                      :      0.009 s

Time for energy+gradient        :      0.111 s
Time for complete geometry iter :      0.121 s

         *************************************************************
         *                GEOMETRY OPTIMIZATION CYCLE   2            *
         *************************************************************
---------------------------------
CARTESIAN COORDINATES (ANGSTROEM)
---------------------------------
  B    -0.796349    2.503266   -2.136521
  B     0.193381    1.480506    0.394159
  B    -2.111778    3.041685   -1.337774
  B     0.701793    1.429665   -0.875442
  B     0.848837   -0.818394   -1.803228
  B    -1.625792    1.121502   -1.513226
  B     1.868929   -1.181639   -0.548409
  B     2.261938   -1.513068    1.362630
  B    -1.349074   -0.546676    1.525221
  B    -0.929887   -2.216699    2.584487
  B     0.339991   -1.139664    2.380936
  B     0.598010   -2.160483   -0.032831

----------------------------
CARTESIAN COORDINATES (A.U.)
----------------------------
  NO LB    ZA    FRAG    MASS        X           Y           Z
   0 B   5.0000    0    10.810   -1.504881    4.730487   -4.037439
   1 B   5.0000    0    10.810    0.365437    2.797751    0.744853
   2 B   5.0000    0    10.810   -3.990682    5.747951   -2.528027
   3 B   5.0000    0    10.810    1.326196    2.701676   -1.654346
   4 B   5.0000    0    10.810    1.604070   -1.546541   -3.407607
   5 B   5.0000    0    10.810   -3.072302    2.119331   -2.859584
   6 B   5.0000    0    10.810    3.531764   -2.232974   -1.036343
   7 B   5.0000    0    10.810    4.274444   -2.859284    2.574997
   8 B   5.0000    0    10.810   -2.549380   -1.033068    2.882250
   9 B   5.0000    0    10.810   -1.757231   -4.188955    4.883972
  10 B   5.0000    0    10.810    0.642491   -2.153652    4.499316
  11 B   5.0000    0    10.810    1.130075   -4.082721   -0.062042

      -----------------------------------------------------------      
     |                   =====================                   |     
     |                           x T B                           |     
     |                   =====================                   |     
     |                         S. Grimme                         |     
     |          Mulliken Center for Theoretical Chemistry        |     
     |                    University of Bonn                     |     
      -----------------------------------------------------------      

   * xtb version 6.6.1 (unknown) compiled by 'builduser@buildhost' on 2023-08-07

   xtb is free software: you can redistribute it and/or modify it under
   the terms of the GNU Lesser General Public License as published by
   the Free Software Foundation, either version 3 of the License, or
   (at your option) any later version.
   
   xtb is distributed in the hope that it will be useful,
   but WITHOUT ANY WARRANTY; without even the implied warranty of
   MERCHANTABILITY or FITNESS FOR A PARTICULAR PURPOSE.  See the
   GNU Lesser General Public License for more details.
   
   Cite this work as:
   * C. Bannwarth, E. Caldeweyher, S. Ehlert, A. Hansen, P. Pracht,
     J. Seibert, S. Spicher, S. Grimme, WIREs Comput. Mol. Sci., 2020, 11,
     e01493. DOI: 10.1002/wcms.1493
   
   for GFN2-xTB:
   * C. Bannwarth, S. Ehlert and S. Grimme., J. Chem. Theory Comput., 2019,
     15, 1652-1671. DOI: 10.1021/acs.jctc.8b01176
   for GFN1-xTB:
   * S. Grimme, C. Bannwarth, P. Shushkov, J. Chem. Theory Comput., 2017,
     13, 1989-2009. DOI: 10.1021/acs.jctc.7b00118
   for GFN0-xTB:
   * P. Pracht, E. Caldeweyher, S. Ehlert, S. Grimme, ChemRxiv, 2019, preprint.
     DOI: 10.26434/chemrxiv.8326202.v1
   for GFN-FF:
   * S. Spicher and S. Grimme, Angew. Chem. Int. Ed., 2020, 59, 15665-15673.
     DOI: 10.1002/anie.202004239
   
   for ALPB and GBSA implicit solvation:
   * S. Ehlert, M. Stahn, S. Spicher, S. Grimme, J. Chem. Theory Comput.,
     2021, 17, 4250-4261. DOI: 10.1021/acs.jctc.1c00471
   
   for DFT-D4:
   * E. Caldeweyher, C. Bannwarth and S. Grimme, J. Chem. Phys., 2017,
     147, 034112. DOI: 10.1063/1.4993215
   * E. Caldeweyher, S. Ehlert, A. Hansen, H. Neugebauer, S. Spicher,
     C. Bannwarth and S. Grimme, J. Chem. Phys., 2019, 150, 154122.
     DOI: 10.1063/1.5090222
   * E. Caldeweyher, J.-M. Mewes, S. Ehlert and S. Grimme, Phys. Chem. Chem. Phys.
     2020, 22, 8499-8512. DOI: 10.1039/D0CP00502A
   
   for sTDA-xTB:
   * S. Grimme and C. Bannwarth, J. Chem. Phys., 2016, 145, 054103.
     DOI: 10.1063/1.4959605
   
   in the mass-spec context:
   * V. Asgeirsson, C. Bauer and S. Grimme, Chem. Sci., 2017, 8, 4879.
     DOI: 10.1039/c7sc00601b
   * J. Koopman and S. Grimme, ACS Omega 2019, 4, 12, 15120-15133.
     DOI: 10.1021/acsomega.9b02011
   
   for metadynamics refer to:
   * S. Grimme, J. Chem. Theory Comput., 2019, 155, 2847-2862
     DOI: 10.1021/acs.jctc.9b00143
   
   for SPH calculations refer to:
   * S. Spicher and S. Grimme, J. Chem. Theory Comput., 2021, 17, 1701-1714
     DOI: 10.1021/acs.jctc.0c01306
   
   with help from (in alphabetical order)
   P. Atkinson, C. Bannwarth, F. Bohle, G. Brandenburg, E. Caldeweyher
   M. Checinski, S. Dohm, S. Ehlert, S. Ehrlich, I. Gerasimov, C. Hölzer
   A. Katbashev, J. Koopman, C. Lavigne, S. Lehtola, F. März, M. Müller,
   F. Musil, H. Neugebauer, J. Pisarek, C. Plett, P. Pracht, F. Pultar,
   J. Seibert, P. Shushkov, S. Spicher, M. Stahn, M. Steiner, T. Strunk,
   J. Stückrath, T. Rose, and J. Unsleber
   
 * started run on 2026/04/17 at 12:14:55.987     

           -------------------------------------------------
          |                Calculation Setup                |
           -------------------------------------------------

          program call               : /usr/bin/xtb random_d2.10_010_m3_XTB.xyz --grad -c 0 -u 2 -P 1 --namespace random_d2.10_010_m3 --input random_d2.10_010_m3_XTB.input.tmp --acc 0.200000
          calculation namespace      : random_d2.10_010_m3
          coordinate file            : random_d2.10_010_m3_XTB.xyz
          omp threads                :                     1

   ID    Z sym.   atoms
    1    5 B      1-12

molecular fragmentation (1/2 indicates fragments):
121221222222
# atoms in fragment 1/2:     3     9
 fragment masses (1/2) :       32.43       97.30
CMA distance (Bohr)    :   7.962
constraining FC (au)   :  0.0500

           -------------------------------------------------
          |                 G F N 2 - x T B                 |
           -------------------------------------------------

        Reference                      10.1021/acs.jctc.8b01176
      * Hamiltonian:
        H0-scaling (s, p, d)           1.850000    2.230000    2.230000
        zeta-weighting                 0.500000
      * Dispersion:
        s8                             2.700000
        a1                             0.520000
        a2                             5.000000
        s9                             5.000000
      * Repulsion:
        kExp                           1.500000    1.000000
        rExp                           1.000000
      * Coulomb:
        alpha                          2.000000
        third order                    shell-resolved
        anisotropic                    true
        a3                             3.000000
        a5                             4.000000
        cn-shift                       1.200000
        cn-exp                         4.000000
        max-rad                        5.000000

q/qsh data taken from xtbrestart
CAMM data taken from xtbrestart

          ...................................................
          :                      SETUP                      :
          :.................................................:
          :  # basis functions                  48          :
          :  # atomic orbitals                  48          :
          :  # shells                           24          :
          :  # electrons                        36          :
          :  max. iterations                   250          :
          :  Hamiltonian                  GFN2-xTB          :
          :  restarted?                       true          :
          :  GBSA solvation                  false          :
          :  PC potential                    false          :
          :  electronic temp.          300.0000000     K    :
          :  accuracy                    0.2000000          :
          :  -> integral cutoff          0.3198970E+02      :
          :  -> integral neglect         0.2000000E-08      :
          :  -> SCF convergence          0.2000000E-06 Eh   :
          :  -> wf. convergence          0.2000000E-04 e    :
          :  Broyden damping             0.4000000          :
          ...................................................

 iter      E             dE          RMSdq      gap      omega  full diag
   1    -13.5111971 -0.135112E+02  0.178E+00    0.13       0.0  T
   2    -13.2643490  0.246848E+00  0.301E+00    0.07       1.0  T
   3    -12.3695398  0.894809E+00  0.625E+00    0.13       1.0  T
   4    -13.2905348 -0.920995E+00  0.326E+00    0.14       1.0  T
   5    -13.4187015 -0.128167E+00  0.231E+00    0.11       1.0  T
   6    -13.3215004  0.972011E-01  0.323E+00    0.12       1.0  T
   7    -13.4908653 -0.169365E+00  0.114E+00    0.11       1.0  T
   8    -13.5013278 -0.104625E-01  0.847E-01    0.12       1.0  T
   9    -13.4939425  0.738534E-02  0.105E+00    0.09       1.0  T
  10    -13.5090931 -0.151506E-01  0.654E-01    0.12       1.0  T
  11    -13.5116712 -0.257815E-02  0.560E-01    0.12       1.0  T
  12    -13.5100312  0.164003E-02  0.609E-01    0.12       1.0  T
  13    -13.5116812 -0.165001E-02  0.513E-01    0.12       1.0  T
  14    -13.5121873 -0.506088E-03  0.467E-01    0.12       1.0  T
  15    -13.5128960 -0.708780E-03  0.363E-01    0.13       1.0  T
  16    -13.5141754 -0.127940E-02  0.228E-01    0.12       1.0  T
  17    -13.5140861  0.893461E-04  0.240E-01    0.13       1.0  T
  18    -13.5140770  0.911871E-05  0.240E-01    0.13       1.0  T
  19    -13.5142276 -0.150611E-03  0.198E-01    0.13       1.0  T
  20    -13.5144805 -0.252871E-03  0.994E-02    0.13       1.0  T
  21    -13.5145167 -0.362453E-04  0.714E-02    0.13       1.0  T
  22    -13.5145457 -0.290377E-04  0.545E-02    0.13       1.0  T
  23    -13.5145580 -0.122222E-04  0.421E-02    0.13       1.0  T
  24    -13.5145725 -0.144974E-04  0.217E-02    0.13       1.3  T
  25    -13.5145768 -0.434133E-05  0.387E-03    0.13       7.5  T
  26    -13.5145769 -0.815496E-07  0.205E-03    0.13      14.1  T
  27    -13.5145769 -0.504786E-07  0.851E-04    0.13      33.9  T
  28    -13.5145769 -0.741443E-08  0.139E-04    0.13     207.0  T
  29    -13.5145769 -0.235433E-09  0.651E-05    0.13     443.1  T

   *** convergence criteria satisfied after 29 iterations ***

         #    Occupation            Energy/Eh            Energy/eV
      -------------------------------------------------------------
         1        2.0000           -0.4051376             -11.0244
       ...           ...                  ...                  ...
        13        2.0000           -0.2686101              -7.3093
        14        2.0000           -0.2564931              -6.9795
        15        2.0000           -0.2534099              -6.8956
        16        2.0000           -0.2468305              -6.7166
        17        1.7701           -0.2358779              -6.4186
        18        1.2296           -0.2335794              -6.3560
        19        0.9125           -0.2266056              -6.1663 (HOMO)
        20        0.0707           -0.2219325              -6.0391 (LUMO)
        21        0.0170           -0.2205274              -6.0009
        22        0.0000           -0.2116946              -5.7605
        23                         -0.2034897              -5.5372
        24                         -0.2008808              -5.4662
       ...                                ...                  ...
        48                          1.4887169              40.5101
      -------------------------------------------------------------
                  HL-Gap            0.0046731 Eh            0.1272 eV
             Fermi-level           -0.2295546 Eh           -6.2465 eV

 transition dipole moment (au) for excitation:          18          19
     X       Y       Z   
   0.2413  -0.1175  -1.1387  total (au/Debye):    1.170   2.974
 dE (eV)             :    0.190
 oscillator strength :  0.89992E-02

 SCC (total)                   0 d,  0 h,  0 min,  0.045 sec
 SCC setup                      ...        0 min,  0.000 sec (  0.313%)
 Dispersion                     ...        0 min,  0.000 sec (  0.222%)
 classical contributions        ...        0 min,  0.000 sec (  0.074%)
 integral evaluation            ...        0 min,  0.003 sec (  5.805%)
 iterations                     ...        0 min,  0.033 sec ( 72.670%)
 molecular gradient             ...        0 min,  0.005 sec ( 11.959%)
 printout                       ...        0 min,  0.004 sec (  8.882%)

         :::::::::::::::::::::::::::::::::::::::::::::::::::::
         ::                     SUMMARY                     ::
         :::::::::::::::::::::::::::::::::::::::::::::::::::::
         :: total energy             -13.409242354550 Eh    ::
         :: gradient norm              0.336306609214 Eh/a0 ::
         :: HOMO-LUMO gap              0.127161572702 eV    ::
         ::.................................................::
         :: SCC energy               -13.514576949786 Eh    ::
         :: -> isotropic ES            0.073181595530 Eh    ::
         :: -> anisotropic ES          0.005064184121 Eh    ::
         :: -> anisotropic XC         -0.027156585420 Eh    ::
         :: -> dispersion             -0.018842590116 Eh    ::
         :: repulsion energy           0.105265589809 Eh    ::
         :: add. restraining           0.000000000000 Eh    ::
         :: total charge              -0.000000000029 e     ::
         :::::::::::::::::::::::::::::::::::::::::::::::::::::


Property printout bound to 'properties.out'

           -------------------------------------------------
          | TOTAL ENERGY              -13.409242354550 Eh   |
          | GRADIENT NORM               0.336306609214 Eh/α |
          | HOMO-LUMO GAP               0.127161572702 eV   |
           -------------------------------------------------

------------------------------------------------------------------------
 * finished run on 2026/04/17 at 12:14:56.045     
------------------------------------------------------------------------
 total:
 * wall-time:     0 d,  0 h,  0 min,  0.058 sec
 *  cpu-time:     0 d,  0 h,  0 min,  0.054 sec
 * ratio c/w:     0.923 speedup
 SCF:
 * wall-time:     0 d,  0 h,  0 min,  0.045 sec
 *  cpu-time:     0 d,  0 h,  0 min,  0.041 sec
 * ratio c/w:     0.903 speedup


-------------------------   --------------------
FINAL SINGLE POINT ENERGY       -13.409242354550
-------------------------   --------------------


-------------
DIPOLE MOMENT
-------------
                                X             Y             Z
Total Dipole Moment    :     -0.36600      -0.40000      -0.19200
                        -----------------------------------------
Magnitude (a.u.)       :      0.57517
Magnitude (Debye)      :      1.46196


------------------
CARTESIAN GRADIENT
------------------

   1   B   :    0.053322938    0.024671192   -0.065997200
   2   B   :    0.060428598    0.021259453   -0.101072486
   3   B   :   -0.060474857    0.066902897    0.041253117
   4   B   :   -0.002721219    0.018630189    0.133760942
   5   B   :   -0.033735731   -0.006877716   -0.087718047
   6   B   :   -0.032746868   -0.079881882   -0.001776391
   7   B   :    0.043057024    0.028678834   -0.016713643
   8   B   :    0.083122558   -0.021130786    0.048444651
   9   B   :   -0.065373675    0.050512898   -0.041759351
  10   B   :   -0.029422014   -0.106800866    0.052388337
  11   B   :    0.020058835    0.060058441    0.043426433
  12   B   :   -0.035515589   -0.056022653   -0.004236361

Difference to translation invariance:
           :   -0.0000000000    0.0000000000    0.0000000000

Difference to rotation invariance:
           :    0.0000000002   -0.0000000128   -0.0000000307

Norm of the Cartesian gradient     ...    0.3363066092
RMS gradient                       ...    0.0560511015
MAX gradient                       ...    0.1337609416
------------------------------------------------------------------------------
                         ORCA GEOMETRY RELAXATION STEP
------------------------------------------------------------------------------

Reading the OPT-File                    .... done
Getting information on internals        .... done
Copying old internal coords+grads       .... done
Making the new internal coordinates     .... (2022 redundants) done
Validating the new internal coordinates .... (2022 redundants) done
Calculating the B-matrix                .... done
Calculating the G,G- and P matrices     .... done
Transforming gradient to internals      .... done
Projecting the internal gradient        .... done
Number of atoms                         ....  12
Number of internal coordinates          .... 159
Current Energy                          ....   -13.409242355 Eh
Current gradient norm                   ....     0.336306609 Eh/bohr
Maximum allowed component of the step   ....  0.300
Current trust radius                    ....  0.300
Updating the Hessian (BFGS)             .... done
Forming the augmented Hessian           .... done
Diagonalizing the augmented Hessian     .... done
Last element of RFO vector              ....  0.708927686
Lowest eigenvalues of augmented Hessian:
 -0.268153793  0.012183590  0.015830911  0.017611009  0.019681794
Length of the computed step             ....  0.994856302
Warning: the length of the step is outside the trust region - taking restricted step instead
The input lambda is                     ....     0.001255
   iter:   5  x=   -0.005343  g=1100021.218874 f(x)=  2786.956526
   iter:  10  x=   -0.055523  g= 2510.875688 f(x)=    48.359171
   iter:  15  x=   -0.411481  g=    6.222937 f(x)=     0.799050
   iter:  20  x=   -0.895662  g=    0.201755 f(x)=     0.000435
The output lambda is                    ....    -0.895670 (23 iterations)
The final length of the internal step   ....  0.300000000
[...]
Length of the computed step             ....  0.437479598
The final length of the internal step   ....  0.437479598
Converting the step to Cartesian space:
 Initial RMS(Int)=    0.0346943889
Transforming coordinates:
 Iter   0:  RMS(Cart)=    0.0460919249 RMS(Int)=    0.0322511327
 Iter   5:  RMS(Cart)=    0.0000002895 RMS(Int)=    0.0000011106
done
Storing new coordinates                 .... done
The predicted energy change is          ....    -0.001219001
Previously predicted energy change      ....    -0.002300334
Actually observed energy change         ....    -0.002670187
Ratio of predicted to observed change   ....     1.160782332
New trust radius                        ....     0.700000000

                                .--------------------.
          ----------------------|Geometry convergence|-------------------------
          Item                value                   Tolerance       Converged
          ---------------------------------------------------------------------
          Energy change      -0.0026701869            0.0000010000      NO
          RMS gradient        0.0014796494            0.0000300000      NO
          MAX gradient        0.0114201753            0.0001000000      NO
          RMS step            0.0346943889            0.0006000000      NO
          MAX step            0.1108690780            0.0010000000      NO
          -------------------------------------------------------------------------
          ........................................................
          Max(Bonds)      0.0505      Max(Angles)    3.50
          Max(Dihed)        6.35      Max(Improp)    0.00
          ---------------------------------------------------------------------

The optimization has not yet converged - more geometry cycles are needed


    ---------------------------------------------------------------------------
                         Redundant Internal Coordinates
                            (Angstroem and degrees)

        Definition                    Value    dE/dq     Step     New-Value
    ----------------------------------------------------------------------------
     1. B(B   1,B   0)                1.7123  0.001511 -0.0013    1.7110   
     2. B(B   2,B   0)                1.5440  0.000555 -0.0005    1.5435   
     3. B(B   3,B   0)                1.5464  0.000397 -0.0096    1.5368   
     4. B(B   3,B   1)                1.7502  0.001349  0.0165    1.7667   
     5. B(B   4,B   3)                1.5540  0.002566  0.0052    1.5592   
     6. B(B   5,B   1)                1.6759 -0.002936  0.0227    1.6986   
     7. B(B   5,B   0)                2.6995  0.000660 -0.0003    2.6992   
     8. B(B   5,B   2)                1.5473  0.002369 -0.0004    1.5470   
     9. B(B   5,B   4)                4.0824 -0.001358  0.0505    4.1329   
    10. B(B   5,B   3)                3.2302 -0.001325  0.0289    3.2592   
    11. B(B   6,B   3)                3.0472 -0.002869  0.0223    3.0695   
    12. B(B   6,B   4)                1.5195 -0.005478  0.0091    1.5286   
    13. B(B   7,B   6)                1.5537  0.000907 -0.0087    1.5450   
    14. B(B   8,B   1)                1.6729 -0.011420  0.0243    1.6972   
    15. B(B  10,B   8)                3.0515  0.002643  0.0088    3.0603   
    16. B(B  10,B   7)                1.5396 -0.002752  0.0014    1.5410   
    17. B(B  10,B   9)                1.5539  0.003786 -0.0070    1.5470   
    18. B(B  11,B  10)                1.7252 -0.000678 -0.0020    1.7231   
    19. B(B  11,B   6)                1.6834 -0.002076  0.0236    1.7069   
    20. A(B   1,B   0,B   3)           64.74  0.000099    0.83     65.56   
    21. A(B   2,B   0,B   5)           29.20  0.000839   -0.41     28.79   
    22. A(B   1,B   0,B   2)           64.39 -0.000178   -0.32     64.07   
    23. A(B   3,B   0,B   5)           95.20 -0.000874    1.82     97.02   
    24. A(B   2,B   0,B   3)          123.93 -0.000059    1.03    124.96   
    25. A(B   1,B   0,B   5)           36.72 -0.000979   -0.01     36.71   
    26. A(B   3,B   1,B   5)          141.06  0.000148    0.98    142.04   
    27. A(B   0,B   1,B   8)          152.30 -0.000333    1.05    153.36   
    28. A(B   0,B   1,B   5)          105.63  0.000917    0.27    105.90   
    29. A(B   3,B   1,B   8)          127.29  0.000120    2.24    129.53   
    30. A(B   0,B   1,B   3)           53.04 -0.000300   -0.53     52.51   
    31. A(B   5,B   1,B   8)           55.07 -0.001165    1.40     56.47   
    32. A(B   0,B   2,B   5)          121.67 -0.001331   -0.14    121.53   
    33. A(B   1,B   3,B   6)          109.25 -0.000333   -0.45    108.80   
    34. A(B   0,B   3,B   5)           56.33  0.000639   -1.08     55.25   
    35. A(B   4,B   3,B   5)          112.34 -0.000868    0.88    113.22   
    36. A(B   0,B   3,B   4)          159.25 -0.000325    0.72    159.97   
    37. A(B   1,B   3,B   5)           19.03 -0.000308   -0.50     18.53   
    38. A(B   1,B   3,B   4)          113.47 -0.000467   -1.05    112.43   
    39. A(B   0,B   3,B   1)           62.22  0.000201   -0.30     61.93   
    40. A(B   4,B   3,B   6)            7.41 -0.000205   -1.43      5.97   
    41. A(B   0,B   3,B   6)          163.04 -0.000433   -1.07    161.98   
    42. A(B   5,B   3,B   6)          110.51 -0.000850    0.55    111.06   
    43. A(B   3,B   4,B   6)          165.02  0.000045    3.04    168.06   
    44. A(B   3,B   4,B   5)           47.04  0.000339   -0.28     46.76   
    45. A(B   5,B   4,B   6)          128.04 -0.000387    0.23    128.26   
    46. A(B   1,B   5,B   4)           30.17  0.000755   -1.46     28.71   
    47. A(B   2,B   5,B   3)           57.38  0.000717   -0.38     57.01   
    48. A(B   0,B   5,B   3)           28.47  0.000234   -0.74     27.74   
    49. A(B   0,B   5,B   2)           29.13  0.000491    0.55     29.68   
    50. A(B   3,B   5,B   4)           20.61  0.000529   -0.59     20.02   
    51. A(B   2,B   5,B   4)           76.33  0.001168   -0.76     75.57   
    52. A(B   1,B   5,B   3)           19.91  0.000160   -0.48     19.43   
    53. A(B   0,B   5,B   4)           48.33  0.000738   -1.22     47.11   
    54. A(B   1,B   5,B   2)           65.24  0.000503   -0.12     65.12   
    55. A(B   0,B   5,B   1)           37.65  0.000063   -0.26     37.39   
    56. A(B   3,B   6,B  11)           63.21  0.001133   -2.73     60.48   
    57. A(B   3,B   6,B   7)          120.82 -0.000654   -0.82    120.00   
    58. A(B   3,B   6,B   4)            7.57  0.000160   -1.61      5.97   
    59. A(B   7,B   6,B  11)           63.55 -0.001388   -0.02     63.53   
    60. A(B   4,B   6,B  11)           65.67  0.001122   -2.82     62.84   
    61. A(B   4,B   6,B   7)          126.03 -0.000539   -2.21    123.82   
    62. A(B   6,B   7,B  10)          125.30  0.001230    0.14    125.44   
    63. A(B   1,B   8,B  10)          112.71  0.001651   -3.50    109.21   
    64. A(B   7,B  10,B  11)           62.79 -0.001055    0.54     63.33   
    65. A(B   9,B  10,B  11)           61.81  0.000836    1.45     63.26   
    66. A(B   8,B  10,B  11)           57.37 -0.000652    1.41     58.78   
    67. A(B   8,B  10,B   9)           11.04  0.004768   -1.46      9.58   
    68. A(B   7,B  10,B   9)          124.25  0.000122    1.52    125.78   
    69. A(B   7,B  10,B   8)          117.71 -0.002176    2.23    119.94   
    70. A(B   6,B  11,B  10)          107.42  0.001170   -0.14    107.29   
    71. D(B   5,B   1,B   0,B   2)     12.44  0.000472   -0.82     11.62   
    72. D(B   3,B   1,B   0,B   2)    155.59  0.000027    2.23    157.82   
    73. D(B   3,B   1,B   0,B   5)    143.15 -0.000445    3.05    146.20   
    74. D(B   5,B   1,B   0,B   3)   -143.15  0.000445   -3.05   -146.20   
    75. D(B   8,B   1,B   0,B   5)     41.75 -0.000299   -1.41     40.35   
    76. D(B   8,B   1,B   0,B   2)     54.19  0.000173   -2.22     51.97   
    77. D(B   5,B   2,B   0,B   1)    -15.30  0.000185    0.89    -14.42   
    78. D(B   5,B   2,B   0,B   3)     11.47  0.000158   -0.86     10.61   
    79. D(B   4,B   3,B   1,B   0)   -157.45  0.000245   -0.51   -157.96   
    80. D(B   4,B   3,B   0,B   2)     56.45 -0.000460   -1.49     54.96   
    81. D(B   4,B   3,B   1,B   5)    -90.69  0.001457   -1.82    -92.51   
    82. D(B   5,B   3,B   0,B   2)     -5.59 -0.000215    0.63     -4.96   
    83. D(B   4,B   3,B   1,B   8)    -12.38 -0.000284    1.00    -11.39   
    84. D(B   4,B   3,B   0,B   1)     83.14 -0.000553   -3.87     79.27   
    85. D(B   5,B   3,B   0,B   1)     21.10 -0.000308   -1.75     19.35   
    86. D(B   5,B   3,B   1,B   8)     78.31 -0.001740    2.82     81.13   
    87. D(B   5,B   3,B   1,B   0)    -66.76 -0.001212    1.31    -65.44   
    88. D(B   1,B   3,B   0,B   2)    -26.69  0.000093    2.38    -24.31   
    89. D(B   0,B   3,B   1,B   8)    145.06 -0.000528    1.51    146.57   
    90. D(B   1,B   3,B   0,B   5)    -21.10  0.000308    1.75    -19.35   
    91. D(B   0,B   3,B   1,B   5)     66.76  0.001212   -1.31     65.44   
    92. D(B   4,B   3,B   0,B   5)     62.04 -0.000245   -2.12     59.92   
    93. D(B   5,B   4,B   3,B   6)     77.12 -0.000363   -2.95     74.17   
    94. D(B   6,B   4,B   3,B   0)   -129.76  0.000443    4.94   -124.82   
    95. D(B   6,B   4,B   3,B   1)    -56.48 -0.000101    1.39    -55.10   
    96. D(B   6,B   4,B   3,B   5)    -77.12  0.000363    2.95    -74.17   
    97. D(B   5,B   4,B   3,B   0)    -52.63  0.000080    1.98    -50.65   
    98. D(B   5,B   4,B   3,B   1)     20.64 -0.000464   -1.57     19.07   
    99. D(B   3,B   5,B   0,B   2)    170.47 -0.000124    0.36    170.82   
   100. D(B   2,B   5,B   0,B   1)    156.54 -0.000240    1.47    158.01   
   101. D(B   2,B   5,B   0,B   3)   -170.47  0.000124   -0.36   -170.82   
   102. D(B   2,B   5,B   4,B   3)     21.72  0.000277   -1.51     20.21   
   103. D(B   2,B   5,B   4,B   6)   -176.94  0.000464    2.20   -174.74   
   104. D(B   0,B   5,B   4,B   6)    173.81  0.000220    3.14    176.95   
   105. D(B   1,B   5,B   3,B   0)   -102.36  0.000915   -1.79   -104.15   
   106. D(B   2,B   5,B   3,B   6)   -162.44  0.000513    0.62   -161.82   
   107. D(B   2,B   5,B   3,B   4)   -154.73  0.000246   -1.23   -155.96   
   108. D(B   2,B   5,B   3,B   0)      5.49  0.000112   -0.49      5.00   
   109. D(B   2,B   5,B   3,B   1)    107.85 -0.000803    1.30    109.15   
   110. D(B   0,B   5,B   3,B   6)   -167.93  0.000402    1.11   -166.83   
   111. D(B   0,B   5,B   3,B   1)    102.36 -0.000915    1.79    104.15   
   112. D(B   4,B   5,B   2,B   0)    -14.28 -0.000324    1.03    -13.25   
   113. D(B   1,B   5,B   2,B   0)     15.53  0.000112    0.03     15.56   
   114. D(B   3,B   5,B   2,B   0)     -5.38 -0.000067    0.27     -5.11   
   115. D(B   3,B   5,B   1,B   8)   -108.15  0.001104    1.24   -106.91   
   116. D(B   0,B   5,B   3,B   4)   -160.22  0.000134   -0.74   -160.97   
   117. D(B   3,B   5,B   1,B   0)     49.68  0.000650   -0.48     49.20   
   118. D(B   2,B   5,B   1,B   8)   -170.14  0.000192    1.24   -168.91   
   119. D(B   2,B   5,B   1,B   0)    -12.32 -0.000263   -0.48    -12.81   
   120. D(B   2,B   5,B   1,B   3)    -62.00 -0.000912   -0.00    -62.00   
   121. D(B   0,B   5,B   1,B   8)   -157.82  0.000454    1.72   -156.10   
   122. D(B   0,B   5,B   1,B   3)    -49.68 -0.000650    0.48    -49.20   
   123. D(B   4,B   5,B   0,B   2)    161.29 -0.000306    0.89    162.18   
   124. D(B   0,B   5,B   4,B   3)     12.47  0.000033   -0.56     11.91   
   125. D(B   1,B   5,B   0,B   3)     32.99  0.000364   -1.83     31.17   
   126. D(B   1,B   5,B   0,B   2)   -156.54  0.000240   -1.47   -158.01   
   127. D(B   3,B   5,B   4,B   6)    161.34  0.000187    3.70    165.05   
   128. D(B   1,B   5,B   4,B   6)    119.12  0.001089    2.53    121.65   
   129. D(B   3,B   5,B   0,B   1)    -32.99 -0.000364    1.83    -31.17   
   130. D(B   7,B   6,B   3,B   1)     -9.36 -0.000255    2.54     -6.82   
   131. D(B   4,B   6,B   3,B   5)    105.70  0.000157    2.21    107.91   
   132. D(B   4,B   6,B   3,B   0)     69.07 -0.000501   -0.05     69.02   
   133. D(B   4,B   6,B   3,B   1)    125.90 -0.000212    0.46    126.36   
   134. D(B  11,B   6,B   4,B   5)      4.45  0.000696   -0.23      4.22   
   135. D(B  11,B   6,B   4,B   3)     69.38  0.000545   -0.84     68.54   
   136. D(B   7,B   6,B   4,B   5)    -16.56  0.000099    2.00    -14.56   
   137. D(B   7,B   6,B   4,B   3)     48.37 -0.000051    1.39     49.76   
   138. D(B   7,B   6,B   3,B   4)   -135.27 -0.000043    2.08   -133.19   
   139. D(B   7,B   6,B   3,B   5)    -29.57  0.000114    4.29    -25.27   
   140. D(B   3,B   6,B   4,B   5)    -64.93  0.000150    0.61    -64.32   
   141. D(B   7,B   6,B   3,B   0)    -66.20 -0.000544    2.04    -64.16   
   142. D(B  10,B   7,B   6,B   3)     19.12  0.000837   -1.33     17.79   
   143. D(B  10,B   7,B   6,B  11)     -8.87 -0.000330    2.53     -6.34   
   144. D(B  10,B   7,B   6,B   4)     12.53  0.000749   -0.27     12.26   
   145. D(B  10,B   8,B   1,B   0)    108.07 -0.000282    1.12    109.18   
   146. D(B  10,B   8,B   1,B   5)    159.52 -0.000003    4.18    163.70   
   147. D(B  10,B   8,B   1,B   3)     28.17  0.000304   -5.10     23.07   
   148. D(B  11,B  10,B   8,B   1)    -35.46 -0.001257    6.35    -29.11   
   149. D(B   7,B  10,B   8,B   1)    -17.21  0.000279    6.26    -10.95   
   150. D(B   9,B  10,B   8,B   1)   -146.11  0.002605    5.48   -140.63   
   151. D(B  11,B  10,B   7,B   6)      8.71  0.000233   -2.18      6.54   
   152. D(B   9,B  10,B   7,B   6)      1.85  0.003586   -3.37     -1.51   
   153. D(B   8,B  10,B   7,B   6)     -8.53 -0.001253   -2.23    -10.76   
   154. D(B   6,B  11,B  10,B   7)     -6.87 -0.000238    1.76     -5.11   
   155. D(B   6,B  11,B  10,B   9)    166.70  0.002963    1.24    167.94   
   156. D(B   6,B  11,B  10,B   8)    154.97 -0.002320    2.94    157.91   
   157. D(B  10,B  11,B   6,B   3)   -146.40  0.001122   -3.69   -150.09   
   158. D(B  10,B  11,B   6,B   7)      6.76  0.000103   -1.54      5.22   
   159. D(B  10,B  11,B   6,B   4)   -154.34  0.001005   -2.30   -156.64   
    ----------------------------------------------------------------------------

Geometry step timings:
Preparation and reading OPT file:      0.000 s ( 0.636 %)
Internal coordinates            :      0.000 s ( 0.843 %)
B/P matrices and projection     :      0.002 s (25.451 %)
Hessian update/contruction      :      0.001 s (18.234 %)
Making the step                 :      0.002 s (34.487 %)
Converting the step to Cartesian:      0.000 s ( 3.091 %)
Storing new data                :      0.000 s ( 0.858 %)
Checking convergence            :      0.000 s ( 1.361 %)
Final printing                  :      0.001 s (14.996 %)
Total time                      :      0.007 s

Time for energy+gradient        :      0.062 s
Time for complete geometry iter :      0.071 s




    ----------------------------------------------------------------------------
                                  WARNING !!!
       The optimization did not converge but reached the maximum number of
       optimization cycles.
       Please check your results very carefully.
    ----------------------------------------------------------------------------



--------------------------------
SUGGESTED CITATIONS FOR THIS RUN
--------------------------------

Below you find a list of papers that are relevant to this ORCA run
We neither can nor want to force you to cite these papers, but we appreciate if you do
You receive ORCA, which is the product of decades of hard work by many enthusiastic individuals, for free
The only thing we kindly ask in return is that you cite our papers,
We deeply appreciate it, if you show your appreciation for ORCA by not just citing the generic ORCA reference.

Please note that relegating all ORCA citations to the supporting information does *not* help us.
SI sections are not indexed - citations you put there will not count into any citation statistics
But we need these citations in order to attract the funding resources that allow us to do what we are doing

Therefore, if you are a happy ORCA user, please consider citing a few of the papers listed below in the main body of your paper

In addition to the list printed below, the program has created the file random_d2.10_010_m3.bibtex that contains the list in bibtex format
You can import this file easily into all common literature databanks and citation aid programs

It goes without saying that in many instances, there are alternative algorithms to achieve similar
results as the ones you have gotten from ORCA. It is, of course, also the case that in some instances
ORCA just re-implements algorithms worked out by others. We are fully aware of that and we are also
fully appreciative of our colleagues work. Hence this citation list should not be read as indicating
that the listed papers, which are focused on our own work, are the only ones worth citing. It simply
meant to make it easier for users to cite ORCA specific papers. It is not a substitute for doing your
own literature research and citing the relevant literature in a scientifically appropriate manner.

List of essential papers. We consider these as the minimum necessary citations

  1. Bannwarth, C.; Ehlert, S.; Grimme, S.
     GFN2-xTB—An Accurate and Broadly Parametrized Self-Consistent Tight-Binding Quantum Chemical Method with Multipole Electrostatics and Density-Dependent Dispersion Contributions
     J. Chem. Theory Comput. 2019 15(3), 1652-1671
     doi.org/10.1021/acs.jctc.8b01176
  2. Neese, F.
     Software update: the ORCA program system, version 6.0
     WIRES Comput. Molec. Sci. 2025 15(1), e70019
     doi.org/10.1002/wcms.70019

List of papers to cite with high priority. The work reported in these papers was absolutely
necessary for this run to complete.
Our perspective: the developers of density functionals and basis sets usually get cited in chemistry papers
Good! But without the algorithms to do something with them, the functionals or basis sets would not do anything.
Hence, in our opinion, the algorithm design and method developments papers are equally worthy of getting cited

  1. Bannwarth, C.; Caldeweyher, E.; Ehlert, S.; Hansen, A.; Pracht, P.; Seibert, J.; Spicher, S.; Grimme, S.
     Extended tight-binding quantum chemistry methods
     WIRES Comput. Molec. Sci. 2020 11(2), e1493
     doi.org/10.1002/wcms.1493

List of suggested additional citations. These are papers that are important in the 'surrounding' of 
of this run, or papers that preceded the highly important papers. If you like your results we are grateful for a citation.

  1. Neese, F.
     The ORCA program system
     WIRES Comput. Molec. Sci. 2012 2(1), 73-78
     doi.org/10.1002/wcms.81
  2. Neese, F.
     Software update: the ORCA program system, version 4.0
     WIRES Comput. Molec. Sci. 2018 8(1), 1-6
     doi.org/10.1002/wcms.1327
  3. Neese, F.; Wennmohs, F.; Becker, U.; Riplinger, C.
     The ORCA quantum chemistry program package
     J. Chem. Phys. 2020 152(22), 224108
     doi.org/10.1063/5.0004608
  4. Neese, F.
     Software update: The ORCA program system—Version 5.0
     WIRES Comput. Molec. Sci. 2022 12(1), e1606
     doi.org/10.1002/wcms.1606

List of optional additional citations

  1. Neese, F.
     Approximate second-order SCF convergence for spin unrestricted wavefunctions
     Chem. Phys. Lett. 2000 325(1-3), 93-98
     doi.org/10.1016/s0009-2614(00)00662-x

Timings for individual modules:

Sum of individual times          ...        3.362 sec (=   0.056 min)
Geometry relaxation              ...        0.477 sec (=   0.008 min)  14.2 %
XTB module                       ...        2.885 sec (=   0.048 min)  85.8 %
                             ****ORCA TERMINATED NORMALLY****
TOTAL RUN TIME: 0 days 0 hours 0 minutes 3 seconds 853 msec
