
                                 *****************
                                 * O   R   C   A *
                                 *****************

                                            #,                                       
                                            ###                                      
                                            ####                                     
                                            #####                                    
                                            ######                                   
                                           ########,                                 
                                     ,,################,,,,,                         
                               ,,#################################,,                 
                          ,,##########################################,,             
                       ,#########################################, ''#####,          
                    ,#############################################,,   '####,        
                  ,##################################################,,,,####,       
                ,###########''''           ''''###############################       
              ,#####''   ,,,,##########,,,,          '''####'''          '####       
            ,##' ,,,,###########################,,,                        '##       
           ' ,,###''''                  '''############,,,                           
         ,,##''                                '''############,,,,        ,,,,,,###''
      ,#''                                            '''#######################'''  
     '                                                          ''''####''''         
             ,#######,   #######,   ,#######,      ##                                
            ,#'     '#,  ##    ##  ,#'     '#,    #''#        ,####,    ,#,          
            ##       ##  ##   ,#'  ##            #'  '#       #'       ,# #          
            ##       ##  #######   ##           ,######,      #####,      #          
            '#,     ,#'  ##    ##  '#,     ,#' ,#      #,     #,   #      #          
             '#######'   ##     ##  '#######'  #'      '#     '####' #    #          



                #########################################################
                #                        -***-                          #
                #          Department of theory and spectroscopy        #
                #                                                       #
                #                      Frank Neese                      #
                #                                                       #
                #     Directorship, Architecture, Infrastructure        #
                #                    SHARK, DRIVERS                     #
                #        Core code/Algorithms in most modules           #
                #                                                       #
                #        Max Planck Institute fuer Kohlenforschung      #
                #                Kaiser Wilhelm Platz 1                 #
                #                 D-45470 Muelheim/Ruhr                 #
                #                      Germany                          #
                #                                                       #
                #                  All rights reserved                  #
                #                        -***-                          #
                #########################################################


                         Program Version 6.1.1  -  RELEASE   -
                                (GIT: $487d211c$)
                          ($2025-11-21 10:33:24 +0100$)
                                                                         
                                  - NO-DMRG VERSION -                    
                                                                         


 With contributions from (in alphabetic order):
[Max-Planck-Institut fuer Kohlenforschung]                               
  Daniel Aravena         : Magnetic Suceptibility                        
  Michael Atanasov       : Ab Initio Ligand Field Theory (pilot matlab implementation)
  Alexander A. Auer      : GIAO ZORA, VPT2 properties, NMR spectrum      
  Ute Becker             : All parallelization in ORCA, NUMFREQ, NUMCALC 
  Giovanni Bistoni       : ED, misc. LED, open-shell LED, HFLD           
  Dmytro Bykov           : pre 5.0 version of the SCF Hessian            
  Marcos Casanova-Páez   : Triplet and SCS-CIS(D). UHF-(DLPNO)-IP/EA/STEOM-CCSD. UHF-CVS-IP/STEOM-CCSD   
  Vijay G. Chilkuri      : MRCI spin determinant printing, contributions to CSF-ICE 
  Pauline Colinet        : FMM embedding                                 
  Dipayan Datta          : RHF DLPNO-CCSD density                        
  Achintya Kumar Dutta   : EOM-CC, STEOM-CC                              
  Nicolas Foglia         : Exact transition moments, OPA infrastructure, MCD improvements    
  Dmitry Ganyushin       : Spin-Orbit,Spin-Spin,Magnetic field MRCI      
  Miquel Garcia-Rates    : C-PCM and meta-GGA Hessian, CCSD/C-PCM, Gaussian charge scheme 
  Tiago L. C. Gouveia    : GS-ROHF, GS-ROCIS                             
  Yang Guo               : DLPNO-NEVPT2, F12-NEVPT2, CIM, IAO-localization        
  Andreas Hansen         : Spin unrestricted coupled pair/coupled cluster methods 
  Ingolf Harden          : AUTO-CI MPn and infrastructure                
  Benjamin Helmich-Paris : MC-RPA, TRAH-(SCF,CASSCF), AVAS, COSX integrals, SCF dyn. polar., MC-PDFT, srDFT 
  Lee Huntington         : MR-EOM, pCC                                   
  Robert Izsak           : Overlap fitted RIJCOSX, COSX-SCS-MP3, EOM     
  Riya Kayal             : Wick's Theorem for AUTO-CI, AUTO-CI UHF-CCSDT 
  Emily Kempfer          : AUTO-CI RHF CISDT and CCSDT, approximate NEVPT4
  Christian Kollmar      : KDIIS, OOCD, Brueckner-CCSD(T), CCSD density, CASPT2, CASPT2-K, improved NEVPT2 
  Axel Koslowski         : Symmetry handling                             
  Simone Kossmann        : meta-GGA functionals, TD-DFT gradient, OOMP2, (MP2 Hessian; deprecated post 5.0) 
  Lucas Lang             : DCDCAS, Hyperfine gauge corrections, ICE-SOC+SSC
  Marvin Lechner         : AUTO-CI (C++ implementation), FIC-MRCC        
  Spencer Leger          : CASSCF response                               
  Dagmar Lenk            : GEPOL surface, SMD, ORCA-2-JSON               
  Dimitrios Liakos       : Extrapolation schemes; Compound Job, Property file
  Dimitrios Manganas     : Further ROCIS development; embedding schemes. LFT, Crystal Embedding 
  Dimitrios Pantazis     : SARC Basis sets                               
  Anastasios Papadopoulos: AUTO-CI, single reference methods and gradients 
  Taras Petrenko         : pre 6.0 DFT Hessian and TD-DFT gradient,  ECA, NRVS 
  Petra Pikulova         : Analytic Raman intensities                    
  Peter Pinski           : DLPNO-MP2, DLPNO-MP2 Gradient                 
  Shashank Vittal Rao    : ES-AILFT, MagRelax                            
  Christoph Reimann      : Effective Core Potentials                     
  Marius Retegan         : Local ZFS, SOC                                
  Christoph Riplinger    : Optimizer, TS searches, QM/MM, DLPNO-CCSD(T), (RO)-DLPNO pert. Triples 
  Michael Roemelt        : Original ROCIS implementation, recursive CI coupling coefficients
  Masaaki Saitow         : Open-shell DLPNO-CCSD energy and density      
  Barbara Sandhoefer     : DKH picture change effects                    
  Yorick L. A. Schmerwitz: GMF and freeze-and-release deltaSCF, NEB S-IDPP initial path                    
  Kantharuban Sivalingam : CASSCF convergence/infrastructure, NEVPT2, NEVPT3, NEVPT4(SD), FIC-MRCI and CEPA variants
  Bernardo de Souza      : ESD, SOC TD-DFT                               
  Georgi L. Stoychev     : AutoAux, RI-MP2 NMR, DLPNO-MP2 response, X2C  
  Van Anh Tran           : RI-MP2 g-tensors                              
  Willem Van den Heuvel  : Paramagnetic NMR                              
  Zikuan Wang            : NOTCH, Electric field optimization            
  Frank Wennmohs         : Technical directorship and infrastructure     
  Hang Xu                : AUTO-CI-Response properties                   
                                                                         
[FACCTs GmbH]                                                            
  Markus Bursch, Nicolas Foglia, Miquel Garcia-Rates, Ingolf Harden, Hagen Neugebauer, Anastasios Papadopoulos, 
  Christoph Riplinger, Bernardo de Souza, Georgi L. Stoychev                                                    
                                                                 
  APM, various basis sets, CI-OPT, improved COSX, DLPNO-Multilevel,           
  DOCKER, DRACO, updates on ESD, Fragmentator, GOAT, IRC, LR-CPCM, L-BFGS, MBIS, meta-GGA TD-DFT gradient, ML-optimized integration grids, 
  MM, NACMEs, nearIR, NEB, NEB-TS, NL-DFT gradient (VV10), 2- and 3-layer-ONIOM, interface openCOSMO-RS, QMMM,   
  Crystal-QMMM, RESP, rigid body optimization, SF, symmetry and pop. for TD-DFT, various functionals, SOLVATOR                                   
                                                                         
[Other institutions]                                                     
  V. Asgeirsson          : NEB                                           
  Christoph Bannwarth    : sTDA-DFT, sTD-DFT, PBEh-3c, B97-3c, D3        
  Giovanni Bistoni       : ETS/NOCV, ADLD/ADEX, COVALED                  
  Martin Brehm           : Molecular dynamics                            
  Ronald Cardenas        : ETS/NOCV                                      
  Martina Colucci        : COVALED                                       
  Sebastian Ehlert       : rSCAN, r2SCAN, r2SCAN-3c, D4, dhf basis sets  
  Marvin Friede          : D4 for Fr, Ra, Ac-Lr                          
  Lars Goerigk           : TD-DFT with DH, B97 family of functionals     
  Stefan Grimme          : VdW corrections, initial TS optimization, DFT functionals, gCP, sTDA/sTD-DF 
  Waldemar Hujo          : DFT-NL                                        
  H. Jonsson             : NEB                                           
  Holger Kruse           : gCP                                           
  Marcel Mueller         : wB97X-3c, vDZP basis set                      
  Hagen Neugebauer       : wr2SCAN, Native XTB                           
  Gianluca Regni         : ADLD/ADEX                                     
  Tobias Risthaus        : pre 6.0 range-separated hybrid DFT and stability analysis
  Lukas Wittmann         : regularized MP2, r2SCAN double-hybrids, wr2SCAN        
                                                                         
We gratefully acknowledge several colleagues who have allowed us to      
interface, adapt or use parts of their codes:                            
  Ed Valeev, F. Pavosevic, A. Kumar             : LibInt (2-el integral package), F12 methods 
  Garnet Chan, S. Sharma, J. Yang, R. Olivares  : DMRG                   
  Ulf Ekstrom                                   : XCFun DFT Library      
  Mihaly Kallay                                 : mrcc  (arbitrary order and MRCC methods)
  Frank Weinhold                                : gennbo (NPA and NBO analysis)           
  Simon Mueller                                 : openCOSMO-RS                            
  Christopher J. Cramer and Donald G. Truhlar   : smd solvation model                     
  S Lehtola, MJT Oliveira, MAL Marques          : LibXC Library                           
  Liviu Ungur et al                             : ANISO software                          


 Your calculation uses the libint2 library for the computation of 2-el integrals
 For citations please refer to: http://libint.valeyev.net

 Your ORCA version has been built with support for libXC version: 7.0.0
 For citations please refer to: https://libxc.gitlab.io

 This ORCA versions uses:
   CBLAS   interface :  Fast vector & matrix operations
   LAPACKE interface :  Fast linear algebra routines
   SCALAPACK package :  Parallel linear algebra routines
   Shared memory     :  Shared parallel matrices
   BLAS/LAPACK       :  OpenBLAS 0.3.29  USE64BITINT DYNAMIC_ARCH NO_AFFINITY Zen SINGLE_THREADED
        Core in use  :  Zen
   Copyright (c) 2011-2014, The OpenBLAS Project


  ***********************************
  * Starting time: Fri Apr 17 12:14:53 2026
  * Host name:     vmi3233575
  * Process ID:    340409
  * Working dir.:  /root/orca_b12_vps_pack/jobs/01_xtb/mult_3
  ***********************************

NOTE: MaxCore=500 MB was set to SCF,MP2,MDCI,CIPSI,MRCI,RASCI and CIS
      => If you want to overwrite this, your respective input block should be placed after the MaxCore statement


***************************************
The coordinates will be read from file: ../../../starts/random_d2.10_008.xyz
***************************************


Your calculation utilizes the semiempirical GFN2-xTB method
Please cite in your paper:
Bannwarth, C.; Ehlert S.; Grimme, S. J. Chem. Theory Comput. 2019, 15, 1652.
   

================================================================================

================================================================================
                                        WARNINGS
                       Please study these warnings very carefully!
================================================================================


WARNING: Geometry Optimization
  ===> : Switching off AutoStart
         For restart on a previous wavefunction, please use MOREAD

WARNING: Found dipole moment calculation with XTB calculation
  ===> : Switching off dipole moment calculation

Environment variable XTBEXE for xtb has been set!

================================================================================
                                       INPUT FILE
================================================================================
NAME = random_d2.10_008_m3.inp
|  1> ! GFN2-xTB TightSCF TightOpt
|  2> 
|  3> %pal
|  4>   nprocs 1
|  5> end
|  6> 
|  7> %maxcore 500
|  8> 
|  9> * xyzfile 0 3 ../../../starts/random_d2.10_008.xyz
| 10> 
| 11>                          ****END OF INPUT****
================================================================================

                       *****************************
                       * Geometry Optimization Run *
                       *****************************

Geometry optimization settings:
Update method            Update   .... BFGS
Choice of coordinates    CoordSys .... (2022) Redundant Internals
Initial Hessian          InHess   .... Almloef's Model
Max. no of cycles        MaxIter  .... 50

Convergence Tolerances:
Energy Change            TolE     ....  1.0000e-06 Eh
Max. Gradient            TolMAXG  ....  1.0000e-04 Eh/bohr
RMS Gradient             TolRMSG  ....  3.0000e-05 Eh/bohr
Max. Displacement        TolMAXD  ....  1.0000e-03 bohr
RMS Displacement         TolRMSD  ....  6.0000e-04 bohr
Strict Convergence                .... False

------------------------------------------------------------------------------
                        ORCA OPTIMIZATION COORDINATE SETUP
------------------------------------------------------------------------------

The optimization will be done in redundant internal coordinates (2022)
Making redundant internal coordinates   ...  (2022 redundants) done
Evaluating the initial hessian          ...  (Almloef) done
Evaluating the coordinates              ...  done
Calculating the B-matrix                .... done
Calculating the G-matrix                .... done
The number of degrees of freedom        ....  141

    -----------------------------------------------------------------
                    Redundant Internal Coordinates


    -----------------------------------------------------------------
         Definition                    Initial Value    Approx d2E/dq
    -----------------------------------------------------------------
      1. B(B   3,B   2)                  2.7932         0.010000   
      2. B(B   4,B   1)                  2.3925         0.021085   
      3. B(B   4,B   3)                  1.2930         1.197266   
      4. B(B   5,B   1)                  1.5154         0.528800   
      5. B(B   6,B   0)                  2.9882         0.010000   
      6. B(B   6,B   2)                  3.6608         0.010000   
      7. B(B   7,B   3)                  2.4601         0.016446   
      8. B(B   7,B   4)                  2.7184         0.010000   
      9. B(B   8,B   3)                  2.4779         0.015406   
     10. B(B   8,B   4)                  2.3789         0.022167   
     11. B(B   9,B   7)                  1.8343         0.163888   
     12. B(B   9,B   4)                  2.9561         0.010000   
     13. B(B  10,B   5)                  2.2189         0.039888   
     14. B(B  10,B   9)                  1.3710         0.898882   
     15. B(B  11,B   3)                  2.7406         0.010000   
     16. B(B  11,B   2)                  1.9373         0.112251   
     17. B(B  11,B   7)                  2.6922         0.010000   
     18. B(B  11,B   6)                  4.5716         0.010000   
     19. A(B   4,B   1,B   5)          108.4675         0.250577   
     20. A(B   3,B   2,B   6)          112.0975         0.108453   
     21. A(B   3,B   2,B  11)           68.0568         0.170532   
     22. A(B   6,B   2,B  11)          105.3101         0.128632   
     23. A(B   2,B   3,B   7)          101.0401         0.141788   
     24. A(B   2,B   3,B  11)           40.9712         0.130808   
     25. A(B   2,B   3,B   4)          101.8308         0.228317   
     26. A(B   2,B   3,B   8)          107.2274         0.141013   
     27. A(B   8,B   3,B  11)          148.1984         0.143339   
     28. A(B   7,B   3,B   8)          146.6461         0.157610   
     29. A(B   4,B   3,B  11)          109.9966         0.234546   
     30. A(B   7,B   3,B  11)           62.0742         0.144148   
     31. A(B   4,B   3,B   7)           86.9884         0.272772   
     32. A(B   4,B   3,B   8)           70.3686         0.270075   
     33. A(B   1,B   4,B   3)          146.0903         0.283404   
     34. A(B   3,B   4,B   8)           78.8392         0.285618   
     35. A(B   1,B   4,B   7)           99.3524         0.148425   
     36. A(B   7,B   4,B   9)           37.4235         0.126192   
     37. A(B   7,B   4,B   8)          136.1518         0.149101   
     38. A(B   1,B   4,B   9)           70.1570         0.137769   
     39. A(B   3,B   4,B   7)           64.6539         0.237256   
     40. A(B   3,B   4,B   9)          101.8293         0.210672   
     41. A(B   8,B   4,B   9)          159.8908         0.138324   
     42. A(B   1,B   4,B   8)           97.8883         0.167809   
     43. A(B   1,B   5,B  10)          106.2019         0.275657   
     44. A(B   2,B   6,B  11)           24.1251         0.093434   
     45. A(B   0,B   6,B   2)          124.3563         0.105541   
     46. A(B   0,B   6,B  11)          113.3228         0.096756   
     47. A(B   3,B   7,B   9)          106.4806         0.206167   
     48. A(B   9,B   7,B  11)          112.3392         0.185605   
     49. A(B   3,B   7,B   4)           28.3577         0.145175   
     50. A(B   4,B   7,B  11)           78.0464         0.135317   
     51. A(B   4,B   7,B   9)           78.3374         0.183523   
     52. A(B   3,B   7,B  11)           64.0841         0.146412   
     53. A(B   3,B   8,B   4)           30.7923         0.162406   
     54. A(B   7,B   9,B  10)          144.8443         0.378801   
     55. A(B   4,B   9,B  10)           90.4491         0.203028   
     56. A(B   4,B   9,B   7)           64.2391         0.166574   
     57. A(B   5,B  10,B   9)          107.3546         0.299472   
     58. A(B   3,B  11,B   7)           53.8417         0.134470   
     59. A(B   3,B  11,B   6)           91.1112         0.098529   
     60. A(B   2,B  11,B   3)           70.9720         0.174178   
     61. A(B   6,B  11,B   7)          109.0398         0.098921   
     62. A(B   2,B  11,B   7)          121.7232         0.177675   
     63. A(B   2,B  11,B   6)           50.5648         0.107584   
     64. D(B   7,B   3,B   2,B  11)    -17.7485         0.010000   
     65. D(B   4,B   3,B   2,B   6)     -8.6966         0.010000   
     66. D(B  11,B   3,B   2,B   6)     98.2599         0.010000   
     67. D(B   4,B   3,B   2,B  11)   -106.9566         0.010000   
     68. D(B   8,B   3,B   2,B  11)   -179.8331         0.010000   
     69. D(B   7,B   3,B   2,B   6)     80.5114         0.010000   
     70. D(B   1,B   4,B   3,B  11)    126.3093         0.098210   
     71. D(B   1,B   4,B   3,B   7)     67.5214         0.098210   
     72. D(B   3,B   4,B   1,B   5)   -135.8197         0.010000   
     73. D(B   7,B   4,B   3,B   8)   -155.0712         0.098210   
     74. D(B   1,B   4,B   3,B   2)    168.1768         0.098210   
     75. D(B   7,B   4,B   3,B   2)    100.6554         0.098210   
     76. D(B   7,B   4,B   3,B  11)     58.7879         0.098210   
     77. D(B   1,B   4,B   3,B   8)    -87.5498         0.098210   
     78. D(B   9,B   4,B   1,B   5)    -54.2257         0.010000   
     79. D(B   7,B   4,B   1,B   5)    -78.0056         0.010000   
     80. D(B   9,B   4,B   3,B   7)     -4.4148         0.098210   
     81. D(B   8,B   4,B   1,B   5)    142.4689         0.010000   
     82. D(B  10,B   5,B   1,B   4)     40.3105         0.010674   
     83. D(B  11,B   6,B   2,B   3)    -72.1212         0.010000   
     84. D(B   0,B   6,B   2,B  11)     69.3248         0.010000   
     85. D(B   0,B   6,B   2,B   3)     -2.7964         0.010000   
     86. D(B   9,B   7,B   4,B   3)   -172.8783         0.010000   
     87. D(B  11,B   7,B   3,B   8)    160.7722         0.010000   
     88. D(B  11,B   7,B   3,B   2)     13.0746         0.010000   
     89. D(B  11,B   7,B   3,B   4)    114.5480         0.010000   
     90. D(B   9,B   7,B   3,B  11)   -107.2736         0.010000   
     91. D(B   9,B   7,B   3,B   4)      7.2743         0.010000   
     92. D(B   9,B   7,B   4,B   1)     38.6180         0.010000   
     93. D(B   9,B   7,B   3,B   8)     53.4985         0.010000   
     94. D(B  11,B   7,B   4,B   9)    116.1296         0.010000   
     95. D(B  11,B   7,B   4,B   8)    -93.3987         0.010000   
     96. D(B  11,B   7,B   4,B   1)    154.7476         0.010000   
     97. D(B   9,B   7,B   3,B   2)    -94.1991         0.010000   
     98. D(B  11,B   7,B   4,B   3)    -56.7487         0.010000   
     99. D(B   9,B   7,B   4,B   8)    150.4717         0.010000   
    100. D(B   3,B   8,B   4,B   9)     93.9494         0.010000   
    101. D(B   3,B   8,B   4,B   7)     33.3577         0.010000   
    102. D(B   3,B   8,B   4,B   1)    145.7572         0.010000   
    103. D(B   4,B   8,B   3,B  11)     96.5284         0.010000   
    104. D(B   4,B   8,B   3,B   2)     96.7360         0.010000   
    105. D(B   4,B   8,B   3,B   7)    -49.9564         0.010000   
    106. D(B   4,B   9,B   7,B   3)     -3.5207         0.010000   
    107. D(B   4,B   9,B   7,B  11)    -71.7319         0.010000   
    108. D(B  10,B   9,B   7,B   4)     47.9246         0.010000   
    109. D(B  10,B   9,B   7,B   3)     44.4039         0.010000   
    110. D(B  10,B   9,B   7,B  11)    -23.8073         0.010000   
    111. D(B  10,B   9,B   4,B   7)   -154.6968         0.010000   
    112. D(B  10,B   9,B   4,B   1)     66.2002         0.010000   
    113. D(B  10,B   9,B   4,B   3)   -148.1235         0.010000   
    114. D(B   7,B   9,B   4,B   8)    -83.2455         0.010000   
    115. D(B   7,B   9,B   4,B   1)   -139.1030         0.010000   
    116. D(B   7,B   9,B   4,B   3)      6.5733         0.010000   
    117. D(B   5,B  10,B   9,B   4)    -55.2702         0.035352   
    118. D(B   5,B  10,B   9,B   7)    -97.2227         0.035352   
    119. D(B   9,B  10,B   5,B   1)     24.1230         0.010000   
    120. D(B   2,B  11,B   3,B   7)    160.2066         0.010000   
    121. D(B   2,B  11,B   3,B   4)     85.0492         0.010000   
    122. D(B   3,B  11,B   2,B   6)   -108.0712         0.010000   
    123. D(B   7,B  11,B   2,B   3)     18.7493         0.010000   
    124. D(B   7,B  11,B   2,B   6)    -89.3219         0.010000   
    125. D(B   2,B  11,B   3,B   8)      0.3024         0.010000   
    126. D(B   6,B  11,B   2,B   3)    108.0712         0.010000   
    127. D(B   6,B  11,B   7,B   4)    -50.6849         0.010000   
    128. D(B   6,B  11,B   7,B   3)    -76.8922         0.010000   
    129. D(B   6,B  11,B   7,B   9)     21.2322         0.010000   
    130. D(B   2,B  11,B   7,B   3)    -22.1081         0.010000   
    131. D(B   2,B  11,B   7,B   9)     76.0163         0.010000   
    132. D(B   3,B  11,B   6,B   2)     64.0133         0.010000   
    133. D(B   3,B  11,B   6,B   0)    -58.7298         0.010000   
    134. D(B   7,B  11,B   6,B   2)    115.8731         0.010000   
    135. D(B   7,B  11,B   6,B   0)     -6.8700         0.010000   
    136. D(B   2,B  11,B   6,B   0)   -122.7431         0.010000   
    137. D(B   2,B  11,B   7,B   4)      4.0992         0.010000   
    138. D(B   6,B  11,B   3,B   8)    -46.9527         0.010000   
    139. D(B   6,B  11,B   3,B   2)    -47.2552         0.010000   
    140. D(B   6,B  11,B   3,B   7)    112.9514         0.010000   
    141. D(B   6,B  11,B   3,B   4)     37.7940         0.010000   
    -----------------------------------------------------------------

Number of atoms                         .... 12
Number of degrees of freedom            .... 141


         *************************************************************
         *                GEOMETRY OPTIMIZATION CYCLE   1            *
         *************************************************************
---------------------------------
CARTESIAN COORDINATES (ANGSTROEM)
---------------------------------
  B    -3.185048    2.999734    0.635033
  B     1.374544    1.550325   -1.773417
  B    -1.517372   -2.646701    0.518348
  B     0.805842   -1.799416   -0.780404
  B     0.526902   -0.564724   -1.043997
  B     0.801859    2.631298   -0.878994
  B    -3.785715    0.135177    1.237325
  B     2.127240   -0.960349    1.117519
  B     0.258054   -1.564865   -3.185597
  B     1.800697    0.841563    1.222761
  B     0.830265    1.809137    1.181825
  B    -0.037267   -2.431180    1.749597

----------------------------
CARTESIAN COORDINATES (A.U.)
----------------------------
  NO LB    ZA    FRAG    MASS        X           Y           Z
   0 B   5.0000    0    10.810   -6.018869    5.668676    1.200039
   1 B   5.0000    0    10.810    2.597512    2.929689   -3.351273
   2 B   5.0000    0    10.810   -2.867417   -5.001541    0.979536
   3 B   5.0000    0    10.810    1.522821   -3.400403   -1.474749
   4 B   5.0000    0    10.810    0.995700   -1.067174   -1.972868
   5 B   5.0000    0    10.810    1.515295    4.972432   -1.661058
   6 B   5.0000    0    10.810   -7.153965    0.255447    2.338206
   7 B   5.0000    0    10.810    4.019901   -1.814797    2.111805
   8 B   5.0000    0    10.810    0.487651   -2.957166   -6.019906
   9 B   5.0000    0    10.810    3.402824    1.590324    2.310683
  10 B   5.0000    0    10.810    1.568973    3.418774    2.233326
  11 B   5.0000    0    10.810   -0.070425   -4.594263    3.306259

      -----------------------------------------------------------      
     |                   =====================                   |     
     |                           x T B                           |     
     |                   =====================                   |     
     |                         S. Grimme                         |     
     |          Mulliken Center for Theoretical Chemistry        |     
     |                    University of Bonn                     |     
      -----------------------------------------------------------      

   * xtb version 6.6.1 (unknown) compiled by 'builduser@buildhost' on 2023-08-07

   xtb is free software: you can redistribute it and/or modify it under
   the terms of the GNU Lesser General Public License as published by
   the Free Software Foundation, either version 3 of the License, or
   (at your option) any later version.
   
   xtb is distributed in the hope that it will be useful,
   but WITHOUT ANY WARRANTY; without even the implied warranty of
   MERCHANTABILITY or FITNESS FOR A PARTICULAR PURPOSE.  See the
   GNU Lesser General Public License for more details.
   
   Cite this work as:
   * C. Bannwarth, E. Caldeweyher, S. Ehlert, A. Hansen, P. Pracht,
     J. Seibert, S. Spicher, S. Grimme, WIREs Comput. Mol. Sci., 2020, 11,
     e01493. DOI: 10.1002/wcms.1493
   
   for GFN2-xTB:
   * C. Bannwarth, S. Ehlert and S. Grimme., J. Chem. Theory Comput., 2019,
     15, 1652-1671. DOI: 10.1021/acs.jctc.8b01176
   for GFN1-xTB:
   * S. Grimme, C. Bannwarth, P. Shushkov, J. Chem. Theory Comput., 2017,
     13, 1989-2009. DOI: 10.1021/acs.jctc.7b00118
   for GFN0-xTB:
   * P. Pracht, E. Caldeweyher, S. Ehlert, S. Grimme, ChemRxiv, 2019, preprint.
     DOI: 10.26434/chemrxiv.8326202.v1
   for GFN-FF:
   * S. Spicher and S. Grimme, Angew. Chem. Int. Ed., 2020, 59, 15665-15673.
     DOI: 10.1002/anie.202004239
   
   for ALPB and GBSA implicit solvation:
   * S. Ehlert, M. Stahn, S. Spicher, S. Grimme, J. Chem. Theory Comput.,
     2021, 17, 4250-4261. DOI: 10.1021/acs.jctc.1c00471
   
   for DFT-D4:
   * E. Caldeweyher, C. Bannwarth and S. Grimme, J. Chem. Phys., 2017,
     147, 034112. DOI: 10.1063/1.4993215
   * E. Caldeweyher, S. Ehlert, A. Hansen, H. Neugebauer, S. Spicher,
     C. Bannwarth and S. Grimme, J. Chem. Phys., 2019, 150, 154122.
     DOI: 10.1063/1.5090222
   * E. Caldeweyher, J.-M. Mewes, S. Ehlert and S. Grimme, Phys. Chem. Chem. Phys.
     2020, 22, 8499-8512. DOI: 10.1039/D0CP00502A
   
   for sTDA-xTB:
   * S. Grimme and C. Bannwarth, J. Chem. Phys., 2016, 145, 054103.
     DOI: 10.1063/1.4959605
   
   in the mass-spec context:
   * V. Asgeirsson, C. Bauer and S. Grimme, Chem. Sci., 2017, 8, 4879.
     DOI: 10.1039/c7sc00601b
   * J. Koopman and S. Grimme, ACS Omega 2019, 4, 12, 15120-15133.
     DOI: 10.1021/acsomega.9b02011
   
   for metadynamics refer to:
   * S. Grimme, J. Chem. Theory Comput., 2019, 155, 2847-2862
     DOI: 10.1021/acs.jctc.9b00143
   
   for SPH calculations refer to:
   * S. Spicher and S. Grimme, J. Chem. Theory Comput., 2021, 17, 1701-1714
     DOI: 10.1021/acs.jctc.0c01306
   
   with help from (in alphabetical order)
   P. Atkinson, C. Bannwarth, F. Bohle, G. Brandenburg, E. Caldeweyher
   M. Checinski, S. Dohm, S. Ehlert, S. Ehrlich, I. Gerasimov, C. Hölzer
   A. Katbashev, J. Koopman, C. Lavigne, S. Lehtola, F. März, M. Müller,
   F. Musil, H. Neugebauer, J. Pisarek, C. Plett, P. Pracht, F. Pultar,
   J. Seibert, P. Shushkov, S. Spicher, M. Stahn, M. Steiner, T. Strunk,
   J. Stückrath, T. Rose, and J. Unsleber
   
 * started run on 2026/04/17 at 12:14:53.832     

           -------------------------------------------------
          |                Calculation Setup                |
           -------------------------------------------------

          program call               : /usr/bin/xtb random_d2.10_008_m3_XTB.xyz --grad -c 0 -u 2 -P 1 --namespace random_d2.10_008_m3 --input random_d2.10_008_m3_XTB.input.tmp --acc 0.200000
          calculation namespace      : random_d2.10_008_m3
          coordinate file            : random_d2.10_008_m3_XTB.xyz
          omp threads                :                     1

   ID    Z sym.   atoms
    1    5 B      1-12

molecular fragmentation (1/2 indicates fragments):
122222222222
# atoms in fragment 1/2:     1    11
 fragment masses (1/2) :       10.81      118.92
CMA distance (Bohr)    :   9.114
constraining FC (au)   :  0.0500

           -------------------------------------------------
          |                 G F N 2 - x T B                 |
           -------------------------------------------------

        Reference                      10.1021/acs.jctc.8b01176
      * Hamiltonian:
        H0-scaling (s, p, d)           1.850000    2.230000    2.230000
        zeta-weighting                 0.500000
      * Dispersion:
        s8                             2.700000
        a1                             0.520000
        a2                             5.000000
        s9                             5.000000
      * Repulsion:
        kExp                           1.500000    1.000000
        rExp                           1.000000
      * Coulomb:
        alpha                          2.000000
        third order                    shell-resolved
        anisotropic                    true
        a3                             3.000000
        a5                             4.000000
        cn-shift                       1.200000
        cn-exp                         4.000000
        max-rad                        5.000000


          ...................................................
          :                      SETUP                      :
          :.................................................:
          :  # basis functions                  48          :
          :  # atomic orbitals                  48          :
          :  # shells                           24          :
          :  # electrons                        36          :
          :  max. iterations                   250          :
          :  Hamiltonian                  GFN2-xTB          :
          :  restarted?                      false          :
          :  GBSA solvation                  false          :
          :  PC potential                    false          :
          :  electronic temp.          300.0000000     K    :
          :  accuracy                    0.2000000          :
          :  -> integral cutoff          0.3198970E+02      :
          :  -> integral neglect         0.2000000E-08      :
          :  -> SCF convergence          0.2000000E-06 Eh   :
          :  -> wf. convergence          0.2000000E-04 e    :
          :  Broyden damping             0.4000000          :
          ...................................................

 iter      E             dE          RMSdq      gap      omega  full diag
   1    -12.9414134 -0.129414E+02  0.212E+01    0.05       0.0  T
   2      0.4696411  0.134111E+02  0.219E+01    0.01       1.0  T
   3     22.7498322  0.222802E+02  0.293E+01    0.40       1.0  T
   4     14.5411283 -0.820870E+01  0.277E+01    0.66       1.0  T
   5     -3.7637655 -0.183049E+02  0.180E+01    0.07       1.0  T
   6     -0.1759631  0.358780E+01  0.200E+01    0.32       1.0  T
   7      3.0258668  0.320183E+01  0.217E+01    0.08       1.0  T
   8     -6.2552934 -0.928116E+01  0.148E+01    0.02       1.0  T
   9     -8.2119979 -0.195670E+01  0.133E+01    0.11       1.0  T
  10     -8.5175628 -0.305565E+00  0.127E+01    0.24       1.0  T
  11    -11.4137682 -0.289621E+01  0.103E+01    0.05       1.0  T
  12    -10.7972319  0.616536E+00  0.104E+01    0.10       1.0  T
  13    -11.0846136 -0.287382E+00  0.100E+01    0.07       1.0  T
  14    -12.1520599 -0.106745E+01  0.957E+00    0.10       1.0  T
  15    -12.3310681 -0.179008E+00  0.901E+00    0.03       1.0  T
  16    -11.9711389  0.359929E+00  0.885E+00    0.06       1.0  T
  17    -12.0794494 -0.108311E+00  0.860E+00    0.02       1.0  T
  18    -11.9065149  0.172934E+00  0.830E+00    0.08       1.0  T
  19    -12.0152850 -0.108770E+00  0.805E+00    0.07       1.0  T
  20    -12.1897459 -0.174461E+00  0.775E+00    0.03       1.0  T
  21    -12.4558738 -0.266128E+00  0.624E+00    0.02       1.0  T
  22    -12.5032282 -0.473544E-01  0.559E+00    0.02       1.0  T
  23    -12.5736724 -0.704442E-01  0.534E+00    0.02       1.0  T
  24    -12.5752877 -0.161532E-02  0.541E+00    0.03       1.0  T
  25    -12.7196262 -0.144338E+00  0.541E+00    0.05       1.0  T
  26    -12.6726511  0.469750E-01  0.548E+00    0.04       1.0  T
  27    -12.7457165 -0.730654E-01  0.480E+00    0.04       1.0  T
  28    -12.8279289 -0.822124E-01  0.447E+00    0.05       1.0  T
  29    -12.9412035 -0.113275E+00  0.391E+00    0.07       1.0  T
  30    -13.0118762 -0.706728E-01  0.367E+00    0.07       1.0  T
  31    -13.0507144 -0.388382E-01  0.352E+00    0.07       1.0  T
  32    -13.0650686 -0.143542E-01  0.349E+00    0.07       1.0  T
  33    -13.0655572 -0.488612E-03  0.348E+00    0.07       1.0  T
  34    -13.0661912 -0.634008E-03  0.297E+00    0.07       1.0  T
  35    -13.0943154 -0.281242E-01  0.283E+00    0.07       1.0  T
  36    -13.1417414 -0.474260E-01  0.253E+00    0.07       1.0  T
  37    -13.1383733  0.336808E-02  0.269E+00    0.07       1.0  T
  38    -13.1020331  0.363403E-01  0.218E+00    0.07       1.0  T
  39    -13.1146129 -0.125799E-01  0.210E+00    0.07       1.0  T
  40    -13.1171559 -0.254293E-02  0.204E+00    0.06       1.0  T
  41    -13.1228838 -0.572794E-02  0.172E+00    0.07       1.0  T
  42    -13.1209517  0.193207E-02  0.173E+00    0.07       1.0  T
  43    -13.1423704 -0.214186E-01  0.153E+00    0.07       1.0  T
  44    -13.1427658 -0.395445E-03  0.152E+00    0.07       1.0  T
  45    -13.1463416 -0.357577E-02  0.149E+00    0.07       1.0  T
  46    -13.1448580  0.148356E-02  0.131E+00    0.07       1.0  T
  47    -13.1458958 -0.103781E-02  0.127E+00    0.07       1.0  T
  48    -13.1425998  0.329599E-02  0.130E+00    0.07       1.0  T
  49    -13.1628215 -0.202216E-01  0.964E-01    0.07       1.0  T
  50    -13.1655292 -0.270777E-02  0.892E-01    0.07       1.0  T
  51    -13.1675487 -0.201948E-02  0.754E-01    0.07       1.0  T
  52    -13.1694478 -0.189905E-02  0.564E-01    0.07       1.0  T
  53    -13.1695445 -0.967117E-04  0.495E-01    0.07       1.0  T
  54    -13.1697749 -0.230394E-03  0.407E-01    0.07       1.0  T
  55    -13.1700233 -0.248398E-03  0.325E-01    0.07       1.0  T
  56    -13.1703151 -0.291795E-03  0.283E-01    0.07       1.0  T
  57    -13.1703313 -0.162000E-04  0.253E-01    0.07       1.0  T
  58    -13.1703621 -0.308236E-04  0.196E-01    0.07       1.0  T
  59    -13.1703637 -0.159605E-05  0.179E-01    0.07       1.0  T
  60    -13.1703406  0.230970E-04  0.131E-01    0.06       1.0  T
  61    -13.1702595  0.811233E-04  0.122E-01    0.06       1.0  T
  62    -13.1701463  0.113124E-03  0.121E-01    0.06       1.0  T
  63    -13.1701000  0.463438E-04  0.124E-01    0.06       1.0  T
  64    -13.1700965  0.346151E-05  0.130E-01    0.06       1.0  T
  65    -13.1700623  0.342056E-04  0.140E-01    0.06       1.0  T
  66    -13.1700561  0.618567E-05  0.141E-01    0.06       1.0  T
  67    -13.1701081 -0.519335E-04  0.135E-01    0.06       1.0  T
  68    -13.1701956 -0.874904E-04  0.124E-01    0.06       1.0  T
  69    -13.1702837 -0.881632E-04  0.109E-01    0.06       1.0  T
  70    -13.1704039 -0.120150E-03  0.791E-02    0.06       1.0  T
  71    -13.1704541 -0.502488E-04  0.565E-02    0.06       1.0  T
  72    -13.1704724 -0.182417E-04  0.389E-02    0.06       1.0  T
  73    -13.1704837 -0.113840E-04  0.192E-02    0.06       1.5  T
  74    -13.1704875 -0.374035E-05  0.851E-03    0.06       3.4  T
  75    -13.1704884 -0.913329E-06  0.488E-03    0.06       5.9  T
  76    -13.1704886 -0.180205E-06  0.278E-03    0.06      10.4  T
  77    -13.1704886  0.753521E-08  0.276E-03    0.06      10.5  T
  78    -13.1704886 -0.154406E-07  0.239E-03    0.06      12.1  T
  79    -13.1704886 -0.178164E-07  0.210E-03    0.06      13.8  T
  80    -13.1704886 -0.307649E-07  0.172E-03    0.06      16.7  T
  81    -13.1704887 -0.202947E-07  0.122E-03    0.06      23.6  T
  82    -13.1704887 -0.104353E-07  0.710E-04    0.06      40.6  T
  83    -13.1704887 -0.223337E-08  0.484E-04    0.06      59.6  T
  84    -13.1704887 -0.285800E-09  0.386E-04    0.06      74.8  T
  85    -13.1704887 -0.564437E-09  0.267E-04    0.06     108.0  T
  86    -13.1704887 -0.244176E-09  0.168E-04    0.06     172.0  T
  87    -13.1704887 -0.168082E-09  0.103E-04    0.06     280.1  T

   *** convergence criteria satisfied after 87 iterations ***

         #    Occupation            Energy/Eh            Energy/eV
      -------------------------------------------------------------
         1        2.0000           -0.4096567             -11.1473
       ...           ...                  ...                  ...
        13        2.0000           -0.2820919              -7.6761
        14        2.0000           -0.2736495              -7.4464
        15        1.9998           -0.2676636              -7.2835
        16        1.9984           -0.2654706              -7.2238
        17        1.9829           -0.2632125              -7.1624
        18        1.0189           -0.2556125              -6.9556
        19        0.7691           -0.2471461              -6.7252 (HOMO)
        20        0.2180           -0.2447894              -6.6611 (LUMO)
        21        0.0082           -0.2414461              -6.5701
        22        0.0045           -0.2408764              -6.5546
        23        0.0003           -0.2383904              -6.4869
        24        0.0000           -0.2339401              -6.3658
       ...           ...                  ...                  ...
        48                          2.0563350              55.9557
      -------------------------------------------------------------
                  HL-Gap            0.0023567 Eh            0.0641 eV
             Fermi-level           -0.2526840 Eh           -6.8759 eV

 transition dipole moment (au) for excitation:          18          19
     X       Y       Z   
   1.1740   0.7627  -1.0027  total (au/Debye):    1.722   4.377
 dE (eV)             :    0.230
 oscillator strength :  0.23670E-01

 SCC (total)                   0 d,  0 h,  0 min,  0.104 sec
 SCC setup                      ...        0 min,  0.000 sec (  0.133%)
 Dispersion                     ...        0 min,  0.000 sec (  0.074%)
 classical contributions        ...        0 min,  0.000 sec (  0.028%)
 integral evaluation            ...        0 min,  0.002 sec (  1.896%)
 iterations                     ...        0 min,  0.093 sec ( 89.646%)
 molecular gradient             ...        0 min,  0.005 sec (  4.721%)
 printout                       ...        0 min,  0.004 sec (  3.479%)

         :::::::::::::::::::::::::::::::::::::::::::::::::::::
         ::                     SUMMARY                     ::
         :::::::::::::::::::::::::::::::::::::::::::::::::::::
         :: total energy             -12.967446422524 Eh    ::
         :: gradient norm              0.503584568321 Eh/a0 ::
         :: HOMO-LUMO gap              0.064128534110 eV    ::
         ::.................................................::
         :: SCC energy               -13.170488671305 Eh    ::
         :: -> isotropic ES            0.054894181232 Eh    ::
         :: -> anisotropic ES          0.002015565647 Eh    ::
         :: -> anisotropic XC         -0.042228149158 Eh    ::
         :: -> dispersion             -0.020299181842 Eh    ::
         :: repulsion energy           0.202712112826 Eh    ::
         :: add. restraining           0.000000000000 Eh    ::
         :: total charge              -0.000000000004 e     ::
         :::::::::::::::::::::::::::::::::::::::::::::::::::::


Property printout bound to 'properties.out'

           -------------------------------------------------
          | TOTAL ENERGY              -12.967446422524 Eh   |
          | GRADIENT NORM               0.503584568321 Eh/α |
          | HOMO-LUMO GAP               0.064128534110 eV   |
           -------------------------------------------------

------------------------------------------------------------------------
 * finished run on 2026/04/17 at 12:14:53.948     
------------------------------------------------------------------------
 total:
 * wall-time:     0 d,  0 h,  0 min,  0.116 sec
 *  cpu-time:     0 d,  0 h,  0 min,  0.116 sec
 * ratio c/w:     0.998 speedup
 SCF:
 * wall-time:     0 d,  0 h,  0 min,  0.104 sec
 *  cpu-time:     0 d,  0 h,  0 min,  0.104 sec
 * ratio c/w:     0.998 speedup


-------------------------   --------------------
FINAL SINGLE POINT ENERGY       -12.967446422520
-------------------------   --------------------


-------------
DIPOLE MOMENT
-------------
                                X             Y             Z
Total Dipole Moment    :      0.77600       0.03800       0.45500
                        -----------------------------------------
Magnitude (a.u.)       :      0.90036
Magnitude (Debye)      :      2.28853


------------------
CARTESIAN GRADIENT
------------------

   1   B   :    0.006960282    0.037937883   -0.007848124
   2   B   :    0.043639553    0.002010542   -0.046811831
   3   B   :   -0.082401492   -0.017494285   -0.055109033
   4   B   :   -0.040937813    0.253542651   -0.069173250
   5   B   :    0.032245791   -0.286585839    0.098458741
   6   B   :   -0.020863552    0.059848027   -0.024453125
   7   B   :   -0.012801088   -0.032601095    0.009549687
   8   B   :    0.068019893   -0.043090524    0.013338261
   9   B   :   -0.011484138   -0.008179283   -0.053161896
  10   B   :   -0.085581524    0.153380792   -0.007757133
  11   B   :    0.069119148   -0.105796858    0.062667880
  12   B   :    0.034084939   -0.012972010    0.080299824

Difference to translation invariance:
           :    0.0000000000    0.0000000000    0.0000000000

Difference to rotation invariance:
           :    0.0000000192    0.0000000011   -0.0000000199

Norm of the Cartesian gradient     ...    0.5035845683
RMS gradient                       ...    0.0839307614
MAX gradient                       ...    0.2865858390
------------------------------------------------------------------------------
                         ORCA GEOMETRY RELAXATION STEP
------------------------------------------------------------------------------

Reading the OPT-File                    .... done
Getting information on internals        .... done
Copying old internal coords+grads       .... done
Making the new internal coordinates     .... (2022 redundants) done
Validating the new internal coordinates .... (2022 redundants) done
Calculating the B-matrix                .... done
Calculating the G,G- and P matrices     .... done
Transforming gradient to internals      .... done
Projecting the internal gradient        .... done
Number of atoms                         ....  12
Number of internal coordinates          .... 141
Current Energy                          ....   -12.967446423 Eh
Current gradient norm                   ....     0.503584568 Eh/bohr
Maximum allowed component of the step   ....  0.300
Current trust radius                    ....  0.300
Evaluating the initial hessian          ....  (Almloef) done
Projecting the Hessian                  .... done
Forming the augmented Hessian           .... done
Diagonalizing the augmented Hessian     .... done
Last element of RFO vector              ....  0.795582568
Lowest eigenvalues of augmented Hessian:
 -0.151080417  0.010196613  0.010951983  0.011314083  0.014457353
Length of the computed step             ....  0.761511376
Warning: the length of the step is outside the trust region - taking restricted step instead
The input lambda is                     ....     0.009000
   iter:   5  x=   -0.000588  g=19178.275984 f(x)=    80.966034
   iter:  10  x=   -0.116924  g=   34.987297 f(x)=     1.678818
   iter:  15  x=   -0.522074  g=    0.307462 f(x)=     0.009375
The output lambda is                    ....    -0.524630 (19 iterations)
The final length of the internal step   ....  0.300000000
Converting the step to Cartesian space:
 Initial RMS(Int)=    0.0252645576
Transforming coordinates:
 Iter   0:  RMS(Cart)=    0.0325448294 RMS(Int)=    0.0251945265
done
Storing new coordinates                 .... done

                                .--------------------.
          ----------------------|Geometry convergence|-------------------------
          Item                value                   Tolerance       Converged
          ---------------------------------------------------------------------
          RMS gradient        0.0207449283            0.0000300000      NO
          MAX gradient        0.1136645211            0.0001000000      NO
          RMS step            0.0252645576            0.0006000000      NO
          MAX step            0.1031351367            0.0010000000      NO
          -------------------------------------------------------------------------
          ........................................................
          Max(Bonds)      0.0546      Max(Angles)    1.68
          Max(Dihed)        3.23      Max(Improp)    0.00
          ---------------------------------------------------------------------

The optimization has not yet converged - more geometry cycles are needed


    ---------------------------------------------------------------------------
                         Redundant Internal Coordinates
                            (Angstroem and degrees)

        Definition                    Value    dE/dq     Step     New-Value
    ----------------------------------------------------------------------------
     1. B(B   3,B   2)                2.7932  0.027765 -0.0259    2.7673   
     2. B(B   4,B   1)                2.3925  0.047372 -0.0470    2.3455   
     3. B(B   4,B   3)                1.2930 -0.113665  0.0537    1.3466   
     4. B(B   5,B   1)                1.5154  0.042152 -0.0225    1.4929   
     5. B(B   6,B   0)                2.9882  0.039349 -0.0389    2.9492   
     6. B(B   6,B   2)                3.6608 -0.005584  0.0040    3.6648   
     7. B(B   7,B   3)                2.4601  0.020066 -0.0177    2.4425   
     8. B(B   7,B   4)                2.7184  0.002309 -0.0096    2.7088   
     9. B(B   8,B   3)                2.4779 -0.002524 -0.0096    2.4683   
    10. B(B   8,B   4)                2.3789  0.018437 -0.0213    2.3576   
    11. B(B   9,B   7)                1.8343  0.010577 -0.0228    1.8115   
    12. B(B   9,B   4)                2.9561  0.036267 -0.0283    2.9278   
    13. B(B  10,B   5)                2.2189  0.051768 -0.0476    2.1713   
    14. B(B  10,B   9)                1.3710 -0.103186  0.0397    1.4107   
    15. B(B  11,B   3)                2.7406  0.028790 -0.0253    2.7153   
    16. B(B  11,B   2)                1.9373  0.063762 -0.0546    1.8827   
    17. B(B  11,B   7)                2.6922  0.007159 -0.0155    2.6767   
    18. B(B  11,B   6)                4.5716  0.015534 -0.0140    4.5576   
    19. A(B   4,B   1,B   5)          108.47 -0.006796    0.30    108.77   
    20. A(B   3,B   2,B   6)          112.10 -0.002865    0.20    112.30   
    21. A(B   3,B   2,B  11)           68.06 -0.003745    0.38     68.43   
    22. A(B   6,B   2,B  11)          105.31 -0.007028    0.65    105.96   
    23. A(B   2,B   3,B   7)          101.04  0.006747   -0.74    100.30   
    24. A(B   2,B   3,B  11)           40.97  0.008987   -0.81     40.16   
    25. A(B   2,B   3,B   4)          101.83 -0.009460    0.59    102.42   
    26. A(B   2,B   3,B   8)          107.23 -0.025185    1.68    108.90   
    27. A(B   8,B   3,B  11)          148.20 -0.016139    0.86    149.06   
    28. A(B   7,B   3,B   8)          146.65  0.030254   -1.65    145.00   
    29. A(B   4,B   3,B  11)          110.00 -0.003843    0.20    110.19   
    30. A(B   7,B   3,B  11)           62.07 -0.004448    0.18     62.26   
    31. A(B   4,B   3,B   7)           86.99  0.015085   -0.84     86.15   
    32. A(B   4,B   3,B   8)           70.37  0.017774   -1.06     69.31   
    33. A(B   1,B   4,B   3)          146.09 -0.006757    0.37    146.46   
    34. A(B   3,B   4,B   8)           78.84  0.008615   -0.44     78.40   
    35. A(B   1,B   4,B   7)           99.35 -0.008913    0.45     99.81   
    36. A(B   7,B   4,B   9)           37.42 -0.001123   -0.18     37.24   
    37. A(B   7,B   4,B   8)          136.15  0.021360   -1.09    135.07   
    38. A(B   1,B   4,B   9)           70.16 -0.004328    0.33     70.49   
    39. A(B   3,B   4,B   7)           64.65  0.009838   -0.53     64.12   
    40. A(B   3,B   4,B   9)          101.83  0.008653   -0.70    101.13   
    41. A(B   8,B   4,B   9)          159.89  0.011187   -0.63    159.26   
    42. A(B   1,B   4,B   8)           97.89 -0.005274    0.35     98.24   
    43. A(B   1,B   5,B  10)          106.20 -0.016337    0.94    107.14   
    44. A(B   2,B   6,B  11)           24.13  0.007856   -0.72     23.40   
    45. A(B   0,B   6,B   2)          124.36  0.001375   -0.16    124.20   
    46. A(B   0,B   6,B  11)          113.32 -0.002049    0.16    113.48   
    47. A(B   3,B   7,B   9)          106.48 -0.015218    1.00    107.48   
    48. A(B   9,B   7,B  11)          112.34 -0.017376    1.13    113.47   
    49. A(B   3,B   7,B   4)           28.36 -0.024923    1.37     29.73   
    50. A(B   4,B   7,B  11)           78.05 -0.015245    0.84     78.88   
    51. A(B   4,B   7,B   9)           78.34  0.009557   -0.37     77.96   
    52. A(B   3,B   7,B  11)           64.08  0.003693   -0.21     63.88   
    53. A(B   3,B   8,B   4)           30.79 -0.026389    1.50     32.29   
    54. A(B   7,B   9,B  10)          144.84 -0.001493    0.11    144.96   
    55. A(B   4,B   9,B  10)           90.45  0.007319   -0.51     89.94   
    56. A(B   4,B   9,B   7)           64.24 -0.008434    0.56     64.80   
    57. A(B   5,B  10,B   9)          107.35  0.013828   -0.27    107.08   
    58. A(B   3,B  11,B   7)           53.84  0.000755    0.02     53.87   
    59. A(B   3,B  11,B   6)           91.11 -0.004862    0.37     91.48   
    60. A(B   2,B  11,B   3)           70.97 -0.005242    0.43     71.41   
    61. A(B   6,B  11,B   7)          109.04  0.007364   -0.39    108.65   
    62. A(B   2,B  11,B   7)          121.72 -0.000434    0.21    121.93   
    63. A(B   2,B  11,B   6)           50.56 -0.000828    0.07     50.64   
    64. D(B   7,B   3,B   2,B  11)    -17.75  0.011544   -0.64    -18.39   
    65. D(B   4,B   3,B   2,B   6)     -8.70 -0.012006    1.07     -7.63   
    66. D(B  11,B   3,B   2,B   6)     98.26 -0.008290    0.80     99.06   
    67. D(B   4,B   3,B   2,B  11)   -106.96 -0.003715    0.27   -106.69   
    68. D(B   8,B   3,B   2,B  11)   -179.83 -0.016880    1.02   -178.81   
    69. D(B   7,B   3,B   2,B   6)     80.51  0.003254    0.16     80.67   
    70. D(B   1,B   4,B   3,B  11)    126.31  0.009601   -0.66    125.65   
    71. D(B   1,B   4,B   3,B   7)     67.52  0.006514   -0.42     67.10   
    72. D(B   3,B   4,B   1,B   5)   -135.82 -0.004891    0.73   -135.09   
    73. D(B   7,B   4,B   3,B   8)   -155.07 -0.011625    0.54   -154.53   
    74. D(B   1,B   4,B   3,B   2)    168.18  0.016608   -1.35    166.82   
    75. D(B   7,B   4,B   3,B   2)    100.66  0.010093   -0.93     99.72   
    76. D(B   7,B   4,B   3,B  11)     58.79  0.003087   -0.24     58.55   
    77. D(B   1,B   4,B   3,B   8)    -87.55 -0.005111    0.12    -87.43   
    78. D(B   9,B   4,B   1,B   5)    -54.23  0.008636   -0.30    -54.52   
    79. D(B   7,B   4,B   1,B   5)    -78.01  0.004464    0.17    -77.83   
    80. D(B   9,B   4,B   3,B   7)     -4.41 -0.000383    0.13     -4.28   
    81. D(B   8,B   4,B   1,B   5)    142.47 -0.013043    1.03    143.50   
    82. D(B  10,B   5,B   1,B   4)     40.31  0.004139   -0.01     40.30   
    83. D(B  11,B   6,B   2,B   3)    -72.12  0.006911   -0.66    -72.78   
    84. D(B   0,B   6,B   2,B  11)     69.32  0.002766   -0.26     69.06   
    85. D(B   0,B   6,B   2,B   3)     -2.80  0.009677   -0.92     -3.72   
    86. D(B   9,B   7,B   4,B   3)   -172.88  0.000577   -0.17   -173.04   
    87. D(B  11,B   7,B   3,B   8)    160.77  0.016166   -1.11    159.66   
    88. D(B  11,B   7,B   3,B   2)     13.07 -0.005425    0.23     13.30   
    89. D(B  11,B   7,B   3,B   4)    114.55 -0.012318    0.68    115.23   
    90. D(B   9,B   7,B   3,B  11)   -107.27  0.012584   -0.83   -108.10   
    91. D(B   9,B   7,B   3,B   4)      7.27  0.000266   -0.14      7.13   
    92. D(B   9,B   7,B   4,B   1)     38.62  0.007488   -0.56     38.05   
    93. D(B   9,B   7,B   3,B   8)     53.50  0.028750   -1.94     51.56   
    94. D(B  11,B   7,B   4,B   9)    116.13 -0.016817    1.07    117.20   
    95. D(B  11,B   7,B   4,B   8)    -93.40 -0.015441    0.94    -92.46   
    96. D(B  11,B   7,B   4,B   1)    154.75 -0.009329    0.50    155.25   
    97. D(B   9,B   7,B   3,B   2)    -94.20  0.007159   -0.60    -94.80   
    98. D(B  11,B   7,B   4,B   3)    -56.75 -0.016240    0.90    -55.85   
    99. D(B   9,B   7,B   4,B   8)    150.47  0.001376   -0.12    150.35   
   100. D(B   3,B   8,B   4,B   9)     93.95  0.048534   -3.23     90.72   
   101. D(B   3,B   8,B   4,B   7)     33.36  0.001242   -0.15     33.21   
   102. D(B   3,B   8,B   4,B   1)    145.76 -0.006494    0.35    146.10   
   103. D(B   4,B   8,B   3,B  11)     96.53  0.023620   -1.45     95.08   
   104. D(B   4,B   8,B   3,B   2)     96.74  0.002560   -0.18     96.56   
   105. D(B   4,B   8,B   3,B   7)    -49.96 -0.025875    1.65    -48.30   
   106. D(B   4,B   9,B   7,B   3)     -3.52  0.002834   -0.09     -3.61   
   107. D(B   4,B   9,B   7,B  11)    -71.73  0.006418   -0.36    -72.10   
   108. D(B  10,B   9,B   7,B   4)     47.92  0.002091   -0.25     47.68   
   109. D(B  10,B   9,B   7,B   3)     44.40  0.004925   -0.34     44.06   
   110. D(B  10,B   9,B   7,B  11)    -23.81  0.008508   -0.61    -24.42   
   111. D(B  10,B   9,B   4,B   7)   -154.70  0.001922   -0.19   -154.88   
   112. D(B  10,B   9,B   4,B   1)     66.20  0.012665   -0.96     65.24   
   113. D(B  10,B   9,B   4,B   3)   -148.12  0.003200   -0.38   -148.51   
   114. D(B   7,B   9,B   4,B   8)    -83.25 -0.049714    3.13    -80.12   
   115. D(B   7,B   9,B   4,B   1)   -139.10  0.010743   -0.78   -139.88   
   116. D(B   7,B   9,B   4,B   3)      6.57  0.001278   -0.20      6.37   
   117. D(B   5,B  10,B   9,B   4)    -55.27 -0.009554    0.86    -54.41   
   118. D(B   5,B  10,B   9,B   7)    -97.22 -0.007643    0.82    -96.40   
   119. D(B   9,B  10,B   5,B   1)     24.12  0.003995   -0.38     23.75   
   120. D(B   2,B  11,B   3,B   7)    160.21  0.012606   -0.74    159.47   
   121. D(B   2,B  11,B   3,B   4)     85.05 -0.006342    0.34     85.38   
   122. D(B   3,B  11,B   2,B   6)   -108.07  0.001356   -0.06   -108.13   
   123. D(B   7,B  11,B   2,B   3)     18.75 -0.011793    0.75     19.50   
   124. D(B   7,B  11,B   2,B   6)    -89.32 -0.010437    0.68    -88.64   
   125. D(B   2,B  11,B   3,B   8)      0.30 -0.030691    1.86      2.16   
   126. D(B   6,B  11,B   2,B   3)    108.07 -0.001356    0.06    108.13   
   127. D(B   6,B  11,B   7,B   4)    -50.68 -0.006110    0.18    -50.51   
   128. D(B   6,B  11,B   7,B   3)    -76.89  0.012261   -0.83    -77.72   
   129. D(B   6,B  11,B   7,B   9)     21.23  0.003329   -0.23     21.00   
   130. D(B   2,B  11,B   7,B   3)    -22.11  0.015072   -0.95    -23.05   
   131. D(B   2,B  11,B   7,B   9)     76.02  0.006139   -0.35     75.67   
   132. D(B   3,B  11,B   6,B   2)     64.01 -0.002994    0.28     64.29   
   133. D(B   3,B  11,B   6,B   0)    -58.73 -0.004206    0.40    -58.33   
   134. D(B   7,B  11,B   6,B   2)    115.87 -0.006048    0.56    116.43   
   135. D(B   7,B  11,B   6,B   0)     -6.87 -0.007260    0.68     -6.19   
   136. D(B   2,B  11,B   6,B   0)   -122.74 -0.001212    0.12   -122.62   
   137. D(B   2,B  11,B   7,B   4)      4.10 -0.003299    0.06      4.16   
   138. D(B   6,B  11,B   3,B   8)    -46.95 -0.030331    1.81    -45.15   
   139. D(B   6,B  11,B   3,B   2)    -47.26  0.000360   -0.05    -47.31   
   140. D(B   6,B  11,B   3,B   7)    112.95  0.012966   -0.79    112.16   
   141. D(B   6,B  11,B   3,B   4)     37.79 -0.005982    0.28     38.08   
    ----------------------------------------------------------------------------

Geometry step timings:
Preparation and reading OPT file:      0.000 s ( 0.480 %)
Internal coordinates            :      0.000 s ( 0.705 %)
B/P matrices and projection     :      0.001 s (17.547 %)
Hessian update/contruction      :      0.001 s (11.963 %)
Making the step                 :      0.003 s (47.373 %)
Converting the step to Cartesian:      0.000 s ( 4.113 %)
Storing new data                :      0.000 s ( 1.411 %)
Checking convergence            :      0.000 s ( 1.036 %)
Final printing                  :      0.001 s (15.356 %)
Total time                      :      0.007 s

Time for energy+gradient        :      0.126 s
Time for complete geometry iter :      0.134 s

         *************************************************************
         *                GEOMETRY OPTIMIZATION CYCLE   2            *
         *************************************************************
---------------------------------
CARTESIAN COORDINATES (ANGSTROEM)
---------------------------------
  B    -3.180216    2.966057    0.630873
  B     1.368041    1.541172   -1.756194
  B    -1.495739   -2.640580    0.546261
  B     0.793789   -1.817852   -0.772391
  B     0.520240   -0.529014   -1.051219
  B     0.817356    2.611696   -0.873136
  B    -3.776069    0.142926    1.241513
  B     2.097385   -0.962771    1.107890
  B     0.277435   -1.534975   -3.169476
  B     1.803385    0.821787    1.207132
  B     0.823840    1.835547    1.154828
  B    -0.049447   -2.433993    1.733919

----------------------------
CARTESIAN COORDINATES (A.U.)
----------------------------
  NO LB    ZA    FRAG    MASS        X           Y           Z
   0 B   5.0000    0    10.810   -6.009738    5.605036    1.192177
   1 B   5.0000    0    10.810    2.585223    2.912392   -3.318725
   2 B   5.0000    0    10.810   -2.826536   -4.989973    1.032283
   3 B   5.0000    0    10.810    1.500044   -3.435242   -1.459607
   4 B   5.0000    0    10.810    0.983112   -0.999691   -1.986517
   5 B   5.0000    0    10.810    1.544579    4.935390   -1.649988
   6 B   5.0000    0    10.810   -7.135736    0.270091    2.346120
   7 B   5.0000    0    10.810    3.963483   -1.819373    2.093608
   8 B   5.0000    0    10.810    0.524276   -2.900683   -5.989442
   9 B   5.0000    0    10.810    3.407904    1.552952    2.281150
  10 B   5.0000    0    10.810    1.556831    3.468681    2.182309
  11 B   5.0000    0    10.810   -0.093442   -4.599579    3.276632

      -----------------------------------------------------------      
     |                   =====================                   |     
     |                           x T B                           |     
     |                   =====================                   |     
     |                         S. Grimme                         |     
     |          Mulliken Center for Theoretical Chemistry        |     
     |                    University of Bonn                     |     
      -----------------------------------------------------------      

   * xtb version 6.6.1 (unknown) compiled by 'builduser@buildhost' on 2023-08-07

   xtb is free software: you can redistribute it and/or modify it under
   the terms of the GNU Lesser General Public License as published by
   the Free Software Foundation, either version 3 of the License, or
   (at your option) any later version.
   
   xtb is distributed in the hope that it will be useful,
   but WITHOUT ANY WARRANTY; without even the implied warranty of
   MERCHANTABILITY or FITNESS FOR A PARTICULAR PURPOSE.  See the
   GNU Lesser General Public License for more details.
   
   Cite this work as:
   * C. Bannwarth, E. Caldeweyher, S. Ehlert, A. Hansen, P. Pracht,
     J. Seibert, S. Spicher, S. Grimme, WIREs Comput. Mol. Sci., 2020, 11,
     e01493. DOI: 10.1002/wcms.1493
   
   for GFN2-xTB:
   * C. Bannwarth, S. Ehlert and S. Grimme., J. Chem. Theory Comput., 2019,
     15, 1652-1671. DOI: 10.1021/acs.jctc.8b01176
   for GFN1-xTB:
   * S. Grimme, C. Bannwarth, P. Shushkov, J. Chem. Theory Comput., 2017,
     13, 1989-2009. DOI: 10.1021/acs.jctc.7b00118
   for GFN0-xTB:
   * P. Pracht, E. Caldeweyher, S. Ehlert, S. Grimme, ChemRxiv, 2019, preprint.
     DOI: 10.26434/chemrxiv.8326202.v1
   for GFN-FF:
   * S. Spicher and S. Grimme, Angew. Chem. Int. Ed., 2020, 59, 15665-15673.
     DOI: 10.1002/anie.202004239
   
   for ALPB and GBSA implicit solvation:
   * S. Ehlert, M. Stahn, S. Spicher, S. Grimme, J. Chem. Theory Comput.,
     2021, 17, 4250-4261. DOI: 10.1021/acs.jctc.1c00471
   
   for DFT-D4:
   * E. Caldeweyher, C. Bannwarth and S. Grimme, J. Chem. Phys., 2017,
     147, 034112. DOI: 10.1063/1.4993215
   * E. Caldeweyher, S. Ehlert, A. Hansen, H. Neugebauer, S. Spicher,
     C. Bannwarth and S. Grimme, J. Chem. Phys., 2019, 150, 154122.
     DOI: 10.1063/1.5090222
   * E. Caldeweyher, J.-M. Mewes, S. Ehlert and S. Grimme, Phys. Chem. Chem. Phys.
     2020, 22, 8499-8512. DOI: 10.1039/D0CP00502A
   
   for sTDA-xTB:
   * S. Grimme and C. Bannwarth, J. Chem. Phys., 2016, 145, 054103.
     DOI: 10.1063/1.4959605
   
   in the mass-spec context:
   * V. Asgeirsson, C. Bauer and S. Grimme, Chem. Sci., 2017, 8, 4879.
     DOI: 10.1039/c7sc00601b
   * J. Koopman and S. Grimme, ACS Omega 2019, 4, 12, 15120-15133.
     DOI: 10.1021/acsomega.9b02011
   
   for metadynamics refer to:
   * S. Grimme, J. Chem. Theory Comput., 2019, 155, 2847-2862
     DOI: 10.1021/acs.jctc.9b00143
   
   for SPH calculations refer to:
   * S. Spicher and S. Grimme, J. Chem. Theory Comput., 2021, 17, 1701-1714
     DOI: 10.1021/acs.jctc.0c01306
   
   with help from (in alphabetical order)
   P. Atkinson, C. Bannwarth, F. Bohle, G. Brandenburg, E. Caldeweyher
   M. Checinski, S. Dohm, S. Ehlert, S. Ehrlich, I. Gerasimov, C. Hölzer
   A. Katbashev, J. Koopman, C. Lavigne, S. Lehtola, F. März, M. Müller,
   F. Musil, H. Neugebauer, J. Pisarek, C. Plett, P. Pracht, F. Pultar,
   J. Seibert, P. Shushkov, S. Spicher, M. Stahn, M. Steiner, T. Strunk,
   J. Stückrath, T. Rose, and J. Unsleber
   
 * started run on 2026/04/17 at 12:14:53.966     

           -------------------------------------------------
          |                Calculation Setup                |
           -------------------------------------------------

          program call               : /usr/bin/xtb random_d2.10_008_m3_XTB.xyz --grad -c 0 -u 2 -P 1 --namespace random_d2.10_008_m3 --input random_d2.10_008_m3_XTB.input.tmp --acc 0.200000
          calculation namespace      : random_d2.10_008_m3
          coordinate file            : random_d2.10_008_m3_XTB.xyz
          omp threads                :                     1

   ID    Z sym.   atoms
    1    5 B      1-12

molecular fragmentation (1/2 indicates fragments):
122222222222
# atoms in fragment 1/2:     1    11
 fragment masses (1/2) :       10.81      118.92
CMA distance (Bohr)    :   9.059
constraining FC (au)   :  0.0500

           -------------------------------------------------
          |                 G F N 2 - x T B                 |
           -------------------------------------------------

        Reference                      10.1021/acs.jctc.8b01176
      * Hamiltonian:
        H0-scaling (s, p, d)           1.850000    2.230000    2.230000
        zeta-weighting                 0.500000
      * Dispersion:
        s8                             2.700000
        a1                             0.520000
        a2                             5.000000
        s9                             5.000000
      * Repulsion:
        kExp                           1.500000    1.000000
        rExp                           1.000000
      * Coulomb:
        alpha                          2.000000
        third order                    shell-resolved
        anisotropic                    true
        a3                             3.000000
        a5                             4.000000
        cn-shift                       1.200000
        cn-exp                         4.000000
        max-rad                        5.000000

q/qsh data taken from xtbrestart
CAMM data taken from xtbrestart

          ...................................................
          :                      SETUP                      :
          :.................................................:
          :  # basis functions                  48          :
          :  # atomic orbitals                  48          :
          :  # shells                           24          :
          :  # electrons                        36          :
          :  max. iterations                   250          :
          :  Hamiltonian                  GFN2-xTB          :
          :  restarted?                       true          :
          :  GBSA solvation                  false          :
          :  PC potential                    false          :
          :  electronic temp.          300.0000000     K    :
          :  accuracy                    0.2000000          :
          :  -> integral cutoff          0.3198970E+02      :
          :  -> integral neglect         0.2000000E-08      :
          :  -> SCF convergence          0.2000000E-06 Eh   :
          :  -> wf. convergence          0.2000000E-04 e    :
          :  Broyden damping             0.4000000          :
          ...................................................

 iter      E             dE          RMSdq      gap      omega  full diag
   1    -13.1825726 -0.131826E+02  0.961E-01    0.09       0.0  T
   2    -12.6556189  0.526954E+00  0.401E+00    0.05       1.0  T
   3    -12.7468282 -0.912093E-01  0.438E+00    0.21       1.0  T
   4    -13.1700448 -0.423217E+00  0.896E-01    0.10       1.0  T
   5    -13.0046613  0.165384E+00  0.265E+00    0.10       1.0  T
   6    -13.1694011 -0.164740E+00  0.908E-01    0.07       1.0  T
   7    -13.1800975 -0.106964E-01  0.519E-01    0.09       1.0  T
   8    -13.1753893  0.470812E-02  0.812E-01    0.08       1.0  T
   9    -13.1781007 -0.271139E-02  0.674E-01    0.08       1.0  T
  10    -13.1782457 -0.144967E-03  0.670E-01    0.08       1.0  T
  11    -13.1783940 -0.148273E-03  0.664E-01    0.08       1.0  T
  12    -13.1781346  0.259371E-03  0.695E-01    0.08       1.0  T
  13    -13.1783603 -0.225668E-03  0.679E-01    0.08       1.0  T
  14    -13.1828623 -0.450199E-02  0.440E-01    0.08       1.0  T
  15    -13.1849970 -0.213475E-02  0.316E-01    0.08       1.0  T
  16    -13.1860224 -0.102541E-02  0.284E-01    0.08       1.0  T
  17    -13.1861790 -0.156565E-03  0.253E-01    0.08       1.0  T
  18    -13.1860346  0.144372E-03  0.258E-01    0.08       1.0  T
  19    -13.1865293 -0.494721E-03  0.200E-01    0.08       1.0  T
  20    -13.1865520 -0.226289E-04  0.189E-01    0.08       1.0  T
  21    -13.1865907 -0.387090E-04  0.171E-01    0.08       1.0  T
  22    -13.1865984 -0.770260E-05  0.135E-01    0.08       1.0  T
  23    -13.1865996 -0.125086E-05  0.125E-01    0.08       1.0  T
  24    -13.1866002 -0.557588E-06  0.100E-01    0.08       1.0  T
  25    -13.1866017 -0.149168E-05  0.737E-02    0.08       1.0  T
  26    -13.1866045 -0.281724E-05  0.550E-02    0.08       1.0  T
  27    -13.1866091 -0.463224E-05  0.213E-02    0.08       1.4  T
  28    -13.1866096 -0.466215E-06  0.177E-02    0.08       1.6  T
  29    -13.1866101 -0.531844E-06  0.333E-03    0.08       8.7  T
  30    -13.1866102 -0.271682E-07  0.235E-03    0.08      12.3  T
  31    -13.1866102 -0.322471E-07  0.138E-03    0.08      20.8  T
  32    -13.1866102 -0.291209E-08  0.641E-04    0.08      45.0  T
  33    -13.1866102 -0.735350E-09  0.205E-04    0.08     140.7  T
  34    -13.1866102 -0.149894E-09  0.154E-05    0.08    1868.7  T
  35    -13.1866102  0.307132E-11  0.200E-05    0.08    1442.0  T

   *** convergence criteria satisfied after 35 iterations ***

         #    Occupation            Energy/Eh            Energy/eV
      -------------------------------------------------------------
         1        2.0000           -0.4091208             -11.1327
       ...           ...                  ...                  ...
        13        2.0000           -0.2801568              -7.6235
        14        2.0000           -0.2733861              -7.4392
        15        1.9999           -0.2676973              -7.2844
        16        1.9995           -0.2657432              -7.2312
        17        1.9691           -0.2617307              -7.1221
        18        1.0313           -0.2551981              -6.9443
        19        0.8296           -0.2472158              -6.7271 (HOMO)
        20        0.1566           -0.2441130              -6.6427 (LUMO)
        21        0.0088           -0.2412273              -6.5641
        22        0.0050           -0.2406753              -6.5491
        23        0.0001           -0.2366992              -6.4409
        24        0.0000           -0.2316417              -6.3033
       ...           ...                  ...                  ...
        48                          1.6262648              44.2529
      -------------------------------------------------------------
                  HL-Gap            0.0031028 Eh            0.0844 eV
             Fermi-level           -0.2520843 Eh           -6.8596 eV

 transition dipole moment (au) for excitation:          18          19
     X       Y       Z   
   1.1725   1.0954  -0.9539  total (au/Debye):    1.867   4.745
 dE (eV)             :    0.217
 oscillator strength :  0.26224E-01

 SCC (total)                   0 d,  0 h,  0 min,  0.046 sec
 SCC setup                      ...        0 min,  0.000 sec (  0.314%)
 Dispersion                     ...        0 min,  0.000 sec (  0.222%)
 classical contributions        ...        0 min,  0.000 sec (  0.130%)
 integral evaluation            ...        0 min,  0.003 sec (  5.811%)
 iterations                     ...        0 min,  0.032 sec ( 69.700%)
 molecular gradient             ...        0 min,  0.006 sec ( 14.033%)
 printout                       ...        0 min,  0.004 sec (  9.711%)

         :::::::::::::::::::::::::::::::::::::::::::::::::::::
         ::                     SUMMARY                     ::
         :::::::::::::::::::::::::::::::::::::::::::::::::::::
         :: total energy             -13.028879133136 Eh    ::
         :: gradient norm              0.355816431970 Eh/a0 ::
         :: HOMO-LUMO gap              0.084432006122 eV    ::
         ::.................................................::
         :: SCC energy               -13.186610188909 Eh    ::
         :: -> isotropic ES            0.056196975979 Eh    ::
         :: -> anisotropic ES          0.002156244437 Eh    ::
         :: -> anisotropic XC         -0.042630420363 Eh    ::
         :: -> dispersion             -0.020239698892 Eh    ::
         :: repulsion energy           0.157406116885 Eh    ::
         :: add. restraining           0.000000000000 Eh    ::
         :: total charge              -0.000000000019 e     ::
         :::::::::::::::::::::::::::::::::::::::::::::::::::::


Property printout bound to 'properties.out'

           -------------------------------------------------
          | TOTAL ENERGY              -13.028879133136 Eh   |
          | GRADIENT NORM               0.355816431970 Eh/α |
          | HOMO-LUMO GAP               0.084432006122 eV   |
           -------------------------------------------------

------------------------------------------------------------------------
 * finished run on 2026/04/17 at 12:14:54.026     
------------------------------------------------------------------------
 total:
 * wall-time:     0 d,  0 h,  0 min,  0.059 sec
 *  cpu-time:     0 d,  0 h,  0 min,  0.059 sec
 * ratio c/w:     0.999 speedup
 SCF:
 * wall-time:     0 d,  0 h,  0 min,  0.046 sec
 *  cpu-time:     0 d,  0 h,  0 min,  0.046 sec
 * ratio c/w:     1.000 speedup


-------------------------   --------------------
FINAL SINGLE POINT ENERGY       -13.028879133140
-------------------------   --------------------


-------------
DIPOLE MOMENT
-------------
                                X             Y             Z
Total Dipole Moment    :      0.73800      -0.04200       0.49300
                        -----------------------------------------
Magnitude (a.u.)       :      0.88851
Magnitude (Debye)      :      2.25842


------------------
CARTESIAN GRADIENT
------------------

   1   B   :    0.007291632    0.039398970   -0.008400222
   2   B   :    0.039570866    0.014511475   -0.038362426
   3   B   :   -0.088493778   -0.018052358   -0.057143751
   4   B   :   -0.013702189    0.142943950   -0.048309163
   5   B   :    0.003314070   -0.177954154    0.075281050
   6   B   :   -0.014320189    0.048681287   -0.035465284
   7   B   :   -0.013021349   -0.034201510    0.010018565
   8   B   :    0.067946005   -0.043115355    0.015778123
   9   B   :   -0.011118350   -0.007895805   -0.054195575
  10   B   :   -0.046825685    0.117992752   -0.007628934
  11   B   :    0.030508693   -0.069654437    0.064269254
  12   B   :    0.038850274   -0.012654814    0.084158362

Difference to translation invariance:
           :    0.0000000000    0.0000000000    0.0000000000

Difference to rotation invariance:
           :   -0.0000000031   -0.0000000085   -0.0000000067

Norm of the Cartesian gradient     ...    0.3558164320
RMS gradient                       ...    0.0593027387
MAX gradient                       ...    0.1779541545
------------------------------------------------------------------------------
                         ORCA GEOMETRY RELAXATION STEP
------------------------------------------------------------------------------

Reading the OPT-File                    .... done
Getting information on internals        .... done
Copying old internal coords+grads       .... done
Making the new internal coordinates     .... (2022 redundants) done
Validating the new internal coordinates .... (2022 redundants) done
Calculating the B-matrix                .... done
Calculating the G,G- and P matrices     .... done
Transforming gradient to internals      .... done
Projecting the internal gradient        .... done
Number of atoms                         ....  12
Number of internal coordinates          .... 141
Current Energy                          ....   -13.028879133 Eh
Current gradient norm                   ....     0.355816432 Eh/bohr
Maximum allowed component of the step   ....  0.300
Current trust radius                    ....  0.300
Updating the Hessian (BFGS)             .... done
Forming the augmented Hessian           .... done
Diagonalizing the augmented Hessian     .... done
Last element of RFO vector              ....  0.746832850
Lowest eigenvalues of augmented Hessian:
 -0.150095422  0.010200115  0.010948630  0.011314118  0.014475478
Length of the computed step             ....  0.890442621
Warning: the length of the step is outside the trust region - taking restricted step instead
The input lambda is                     ....     0.008701
   iter:   5  x=   -0.000016  g=47608.862967 f(x)=   177.578232
   iter:  10  x=   -0.095310  g=   92.046993 f(x)=     3.529020
   iter:  15  x=   -0.501202  g=    0.506810 f(x)=     0.032506
   iter:  20  x=   -0.517992  g=    0.316525 f(x)=     0.000000
The output lambda is                    ....    -0.517992 (20 iterations)
The final length of the internal step   ....  0.300000000
Converting the step to Cartesian space:
 Initial RMS(Int)=    0.0252645576
[...]
------------------------------------------------------------------------
 total:
 * wall-time:     0 d,  0 h,  0 min,  0.044 sec
 *  cpu-time:     0 d,  0 h,  0 min,  0.044 sec
 * ratio c/w:     0.996 speedup
 SCF:
 * wall-time:     0 d,  0 h,  0 min,  0.033 sec
 *  cpu-time:     0 d,  0 h,  0 min,  0.033 sec
 * ratio c/w:     0.996 speedup


-------------------------   --------------------
FINAL SINGLE POINT ENERGY       -14.223820482740
-------------------------   --------------------


-------------
DIPOLE MOMENT
-------------
                                X             Y             Z
Total Dipole Moment    :     -0.61200       0.46200       0.31000
                        -----------------------------------------
Magnitude (a.u.)       :      0.82710
Magnitude (Debye)      :      2.10231


------------------
CARTESIAN GRADIENT
------------------

   1   B   :    0.071516573   -0.010556877    0.049356797
   2   B   :    0.000119670   -0.002524988   -0.014830912
   3   B   :    0.001075435   -0.005026045    0.001959022
   4   B   :    0.000327833   -0.013394698   -0.007256242
   5   B   :   -0.003162554    0.016724031   -0.004793448
   6   B   :    0.014426444    0.005312856    0.021639013
   7   B   :   -0.022485564   -0.008372376    0.003526632
   8   B   :   -0.004913540    0.010354783   -0.019471911
   9   B   :    0.005270551   -0.004925761   -0.004820600
  10   B   :   -0.059581558    0.020759264   -0.034611073
  11   B   :   -0.005156731    0.006167842   -0.011968079
  12   B   :    0.002563441   -0.014518030    0.021270800

Difference to translation invariance:
           :    0.0000000000   -0.0000000000    0.0000000000

Difference to rotation invariance:
           :   -0.0000000127    0.0000000026    0.0000000056

Norm of the Cartesian gradient     ...    0.1280571699
RMS gradient                       ...    0.0213428616
MAX gradient                       ...    0.0715165730
------------------------------------------------------------------------------
                         ORCA GEOMETRY RELAXATION STEP
------------------------------------------------------------------------------

Reading the OPT-File                    .... done
Getting information on internals        .... done
Copying old internal coords+grads       .... done
Making the new internal coordinates     .... (2022 redundants) done
Validating the new internal coordinates .... (2022 redundants) done
Calculating the B-matrix                .... done
Calculating the G,G- and P matrices     .... done
Transforming gradient to internals      .... done
Projecting the internal gradient        .... done
Number of atoms                         ....  12
Number of internal coordinates          .... 116
Current Energy                          ....   -14.223820483 Eh
Current gradient norm                   ....     0.128057170 Eh/bohr
Maximum allowed component of the step   ....  0.300
Current trust radius                    ....  0.700
Updating the Hessian (BFGS)             .... done
Forming the augmented Hessian           .... done
Diagonalizing the augmented Hessian     .... done
Last element of RFO vector              ....  0.900333947
Lowest eigenvalues of augmented Hessian:
 -0.032255449  0.000051499  0.000151241  0.002598523  0.004231455
Length of the computed step             ....  0.483375871
The final length of the internal step   ....  0.483375871
Converting the step to Cartesian space:
 Initial RMS(Int)=    0.0448803229
Transforming coordinates:
 Iter   0:  RMS(Cart)=    0.0640989964 RMS(Int)=    0.0401942113
 Iter   5:  RMS(Cart)=    0.0000002736 RMS(Int)=    0.0000002431
done
Storing new coordinates                 .... done
The predicted energy change is          ....    -0.019896003
Previously predicted energy change      ....    -0.005894698
Actually observed energy change         ....     0.002361341
Ratio of predicted to observed change   ....     0.400587241
New trust radius                        ....     0.466666667

                                .--------------------.
          ----------------------|Geometry convergence|-------------------------
          Item                value                   Tolerance       Converged
          ---------------------------------------------------------------------
          Energy change       0.0023613407            0.0000010000      NO
          RMS gradient        0.0097927344            0.0000300000      NO
          MAX gradient        0.0343290766            0.0001000000      NO
          RMS step            0.0448803229            0.0006000000      NO
          MAX step            0.1453031387            0.0010000000      NO
          -------------------------------------------------------------------------
          ........................................................
          Max(Bonds)      0.0602      Max(Angles)    6.44
          Max(Dihed)        8.33      Max(Improp)    0.00
          ---------------------------------------------------------------------

The optimization has not yet converged - more geometry cycles are needed


    ---------------------------------------------------------------------------
                         Redundant Internal Coordinates
                            (Angstroem and degrees)

        Definition                    Value    dE/dq     Step     New-Value
    ----------------------------------------------------------------------------
     1. B(B   1,B   0)                2.4783  0.009718 -0.0540    2.4243   
     2. B(B   3,B   2)                1.5359  0.005366 -0.0112    1.5247   
     3. B(B   4,B   0)                2.9483  0.015854 -0.0250    2.9233   
     4. B(B   4,B   3)                3.0500  0.006810  0.0055    3.0555   
     5. B(B   4,B   1)                1.5437  0.003588 -0.0053    1.5384   
     6. B(B   5,B   1)                1.5809  0.006565  0.0103    1.5912   
     7. B(B   5,B   0)                1.9150  0.004306 -0.0442    1.8708   
     8. B(B   6,B   0)                1.5884  0.012470 -0.0311    1.5573   
     9. B(B   7,B   3)                3.2986 -0.004330  0.0148    3.3134   
    10. B(B   8,B   4)                1.5571  0.008019 -0.0121    1.5451   
    11. B(B   8,B   3)                1.5471  0.001409 -0.0094    1.5377   
    12. B(B   9,B   7)                1.5362  0.008201 -0.0114    1.5248   
    13. B(B  10,B   9)                1.5485 -0.020235 -0.0143    1.5341   
    14. B(B  10,B   5)                1.5069 -0.026838  0.0190    1.5259   
    15. B(B  10,B   0)                1.6887 -0.026812  0.0602    1.7489   
    16. B(B  11,B   7)                1.5398  0.016898 -0.0116    1.5283   
    17. B(B  11,B   2)                1.5212  0.003602 -0.0045    1.5167   
    18. A(B   6,B   0,B  10)          133.80  0.000724    2.17    135.98   
    19. A(B   1,B   0,B   6)           46.80  0.007422   -0.92     45.88   
    20. A(B   5,B   0,B   6)           85.54  0.006201    2.06     87.59   
    21. A(B   4,B   0,B   6)           23.75  0.009221   -1.11     22.64   
    22. A(B   4,B   0,B  10)          114.33 -0.005604   -1.70    112.63   
    23. A(B   1,B   0,B   4)           31.57 -0.001024    0.51     32.07   
    24. A(B   4,B   0,B   5)           70.55 -0.000582    1.54     72.09   
    25. A(B   5,B   0,B  10)           48.94 -0.007022    0.57     49.51   
    26. A(B   1,B   0,B   5)           39.63  0.000105    1.80     41.44   
    27. A(B   1,B   0,B  10)           87.00 -0.006617    1.23     88.24   
    28. A(B   4,B   1,B   5)          139.60  0.002289   -0.99    138.61   
    29. A(B   0,B   1,B   4)           91.25  0.002296    0.59     91.84   
    30. A(B   0,B   1,B   5)           50.60 -0.001073   -0.58     50.02   
    31. A(B   3,B   2,B  11)          134.60 -0.006131    1.66    136.26   
    32. A(B   2,B   3,B   7)           50.24  0.006434   -1.33     48.90   
    33. A(B   4,B   3,B   8)           10.76  0.002468   -0.42     10.34   
    34. A(B   7,B   3,B   8)           91.03 -0.012966    0.09     91.11   
    35. A(B   2,B   3,B   4)          129.89 -0.009294    0.63    130.52   
    36. A(B   2,B   3,B   8)          140.63 -0.006891    3.85    144.48   
    37. A(B   4,B   3,B   7)           80.32 -0.015486    1.33     81.65   
    38. A(B   0,B   4,B   1)           57.18 -0.001273   -1.09     56.09   
    39. A(B   1,B   4,B   3)          132.48  0.010609   -0.74    131.74   
    40. A(B   0,B   4,B   3)           85.46  0.005995    1.54     86.99   
    41. A(B   3,B   4,B   8)           10.69  0.002028   -0.08     10.61   
    42. A(B   1,B   4,B   8)          141.42  0.012121   -0.71    140.70   
    43. A(B   0,B   4,B   8)           96.10  0.008143    1.13     97.23   
    44. A(B   1,B   5,B  10)          142.62 -0.005460    0.06    142.67   
    45. A(B   0,B   5,B  10)           57.67 -0.008050    3.32     60.99   
    46. A(B   0,B   5,B   1)           89.77  0.000968   -1.22     88.55   
    47. A(B   3,B   7,B   9)          121.69 -0.003024    0.02    121.70   
    48. A(B   9,B   7,B  11)          177.49  0.008411   -2.19    175.30   
    49. A(B   3,B   7,B  11)           58.57  0.002187    0.28     58.85   
    50. A(B   3,B   8,B   4)          158.55 -0.004496    0.50    159.04   
    51. A(B   7,B   9,B  10)          158.82  0.030226   -2.66    156.16   
    52. A(B   0,B  10,B   5)           73.38  0.015072   -3.89     69.50   
    53. A(B   5,B  10,B   9)          118.51 -0.019049    1.81    120.32   
    54. A(B   0,B  10,B   9)           54.98 -0.034329    6.44     61.43   
    55. A(B   2,B  11,B   7)          116.27 -0.002794   -0.38    115.89   
    56. D(B   4,B   1,B   0,B   6)    -29.52 -0.006548    0.62    -28.90   
    57. D(B   5,B   1,B   0,B   4)   -165.42 -0.003623    2.48   -162.94   
    58. D(B   5,B   1,B   0,B   6)    165.06 -0.010171    3.09    168.16   
    59. D(B   5,B   1,B   0,B  10)    -14.56  0.002155   -1.72    -16.28   
    60. D(B   4,B   1,B   0,B   5)    165.42  0.003623   -2.48    162.94   
    61. D(B   4,B   1,B   0,B  10)    150.86  0.005778   -4.20    146.66   
    62. D(B   4,B   3,B   2,B  11)     -6.70  0.001424    2.29     -4.41   
    63. D(B   7,B   3,B   2,B  11)      4.56  0.001928    0.45      5.01   
    64. D(B   8,B   3,B   2,B  11)     -7.62 -0.000113    0.95     -6.67   
    65. D(B   1,B   4,B   3,B   2)     33.47  0.004920   -3.04     30.43   
    66. D(B   1,B   4,B   3,B   7)     24.71  0.003298   -0.47     24.24   
    67. D(B   3,B   4,B   0,B   5)    139.22  0.013754   -3.12    136.11   
    68. D(B   1,B   4,B   0,B  10)    -32.26  0.008358   -4.31    -36.57   
    69. D(B   3,B   4,B   0,B   6)    -94.07  0.016177   -0.92    -94.99   
    70. D(B   0,B   4,B   3,B   8)    174.45  0.007257   -0.51    173.94   
    71. D(B   0,B   4,B   3,B   2)     -2.43  0.012237   -5.32     -7.76   
    72. D(B   8,B   4,B   1,B   5)    -35.26  0.000789   -0.75    -36.01   
    73. D(B   8,B   4,B   1,B   0)    -52.72  0.004602   -3.05    -55.77   
    74. D(B   1,B   4,B   0,B   5)     -9.81  0.002350   -2.24    -12.05   
    75. D(B   3,B   4,B   1,B   0)    -44.08  0.008530   -3.40    -47.48   
    76. D(B   3,B   4,B   1,B   5)    -26.61  0.004716   -1.10    -27.71   
    77. D(B   0,B   4,B   3,B   7)    -11.19  0.010615   -2.75    -13.95   
    78. D(B   0,B   4,B   1,B   5)     17.47 -0.003814    2.30     19.76   
    79. D(B   3,B   4,B   0,B  10)    116.77  0.019762   -5.18    111.58   
    80. D(B   3,B   4,B   0,B   1)    149.03  0.011404   -0.88    148.15   
    81. D(B   1,B   4,B   3,B   8)   -149.64 -0.000060    1.77   -147.88   
    82. D(B   1,B   4,B   0,B   6)    116.90  0.004772   -0.04    116.86   
    83. D(B  10,B   5,B   0,B   1)   -160.55 -0.000891    2.22   -158.33   
    84. D(B   1,B   5,B   0,B  10)    160.55  0.000891   -2.22    158.33   
    85. D(B   1,B   5,B   0,B   4)      8.03 -0.002172    2.16     10.19   
    86. D(B   1,B   5,B   0,B   6)    -10.86 -0.008562    1.44     -9.43   
    87. D(B  10,B   5,B   1,B   4)      4.76 -0.002966    1.61      6.37   
    88. D(B  10,B   5,B   1,B   0)     27.61 -0.007723    3.77     31.39   
    89. D(B   0,B   5,B   1,B   4)    -22.85  0.004757   -2.16    -25.01   
    90. D(B  10,B   5,B   0,B   6)   -171.41 -0.009453    3.66   -167.75   
    91. D(B  10,B   5,B   0,B   4)   -152.52 -0.003063    4.38   -148.13   
    92. D(B  11,B   7,B   3,B   4)    167.50 -0.003588   -0.70    166.80   
    93. D(B  11,B   7,B   3,B   2)     -3.76 -0.001598   -0.54     -4.30   
    94. D(B   9,B   7,B   3,B   8)     -8.51 -0.013884    0.70     -7.81   
    95. D(B   9,B   7,B   3,B   4)     -9.56 -0.013494   -0.31     -9.87   
    96. D(B   9,B   7,B   3,B   2)    179.18 -0.011504   -0.15    179.03   
    97. D(B   3,B   8,B   4,B   1)     36.70  0.004006    1.33     38.03   
    98. D(B   3,B   8,B   4,B   0)     -5.56  0.007144   -8.33    -13.89   
    99. D(B   4,B   8,B   3,B   7)     -5.56  0.003591   -2.43     -7.99   
   100. D(B   4,B   8,B   3,B   2)      3.77  0.005987   -2.52      1.25   
   101. D(B  10,B   9,B   7,B  11)   -112.38 -0.002750    1.77   -110.60   
   102. D(B  10,B   9,B   7,B   3)    -17.30  0.000373    2.91    -14.39   
   103. D(B   5,B  10,B   9,B   7)     24.25  0.014047   -5.00     19.25   
   104. D(B   0,B  10,B   9,B   7)     63.18  0.020580   -5.06     58.12   
   105. D(B   9,B  10,B   5,B   1)     -0.78 -0.006683    2.02      1.24   
   106. D(B   9,B  10,B   5,B   0)     32.48 -0.013024    3.88     36.36   
   107. D(B   0,B  10,B   5,B   1)    -33.26  0.006341   -1.86    -35.12   
   108. D(B   9,B  10,B   0,B   5)   -144.82  0.009827    0.01   -144.81   
   109. D(B   9,B  10,B   0,B   4)   -116.29  0.005137    4.89   -111.40   
   110. D(B   9,B  10,B   0,B   1)   -132.54  0.009380    2.34   -130.20   
   111. D(B   5,B  10,B   0,B   6)     11.90 -0.012947    2.80     14.71   
   112. D(B   5,B  10,B   0,B   4)     28.53 -0.004690    4.88     33.40   
   113. D(B   5,B  10,B   0,B   1)     12.28 -0.000447    2.33     14.61   
   114. D(B   2,B  11,B   7,B   9)     99.87 -0.000536    0.25    100.12   
   115. D(B   2,B  11,B   7,B   3)      3.25  0.001642    0.46      3.71   
   116. D(B   7,B  11,B   2,B   3)     -8.39 -0.003195   -0.13     -8.52   
    ----------------------------------------------------------------------------

Geometry step timings:
Preparation and reading OPT file:      0.000 s ( 0.667 %)
Internal coordinates            :      0.000 s ( 1.046 %)
B/P matrices and projection     :      0.001 s (20.534 %)
Hessian update/contruction      :      0.001 s (17.041 %)
Making the step                 :      0.001 s (28.254 %)
Converting the step to Cartesian:      0.000 s ( 4.182 %)
Storing new data                :      0.000 s ( 1.424 %)
Checking convergence            :      0.000 s ( 1.535 %)
Final printing                  :      0.001 s (25.295 %)
Total time                      :      0.004 s

Time for energy+gradient        :      0.066 s
Time for complete geometry iter :      0.072 s




    ----------------------------------------------------------------------------
                                  WARNING !!!
       The optimization did not converge but reached the maximum number of
       optimization cycles.
       Please check your results very carefully.
    ----------------------------------------------------------------------------



--------------------------------
SUGGESTED CITATIONS FOR THIS RUN
--------------------------------

Below you find a list of papers that are relevant to this ORCA run
We neither can nor want to force you to cite these papers, but we appreciate if you do
You receive ORCA, which is the product of decades of hard work by many enthusiastic individuals, for free
The only thing we kindly ask in return is that you cite our papers,
We deeply appreciate it, if you show your appreciation for ORCA by not just citing the generic ORCA reference.

Please note that relegating all ORCA citations to the supporting information does *not* help us.
SI sections are not indexed - citations you put there will not count into any citation statistics
But we need these citations in order to attract the funding resources that allow us to do what we are doing

Therefore, if you are a happy ORCA user, please consider citing a few of the papers listed below in the main body of your paper

In addition to the list printed below, the program has created the file random_d2.10_008_m3.bibtex that contains the list in bibtex format
You can import this file easily into all common literature databanks and citation aid programs

It goes without saying that in many instances, there are alternative algorithms to achieve similar
results as the ones you have gotten from ORCA. It is, of course, also the case that in some instances
ORCA just re-implements algorithms worked out by others. We are fully aware of that and we are also
fully appreciative of our colleagues work. Hence this citation list should not be read as indicating
that the listed papers, which are focused on our own work, are the only ones worth citing. It simply
meant to make it easier for users to cite ORCA specific papers. It is not a substitute for doing your
own literature research and citing the relevant literature in a scientifically appropriate manner.

List of essential papers. We consider these as the minimum necessary citations

  1. Bannwarth, C.; Ehlert, S.; Grimme, S.
     GFN2-xTB—An Accurate and Broadly Parametrized Self-Consistent Tight-Binding Quantum Chemical Method with Multipole Electrostatics and Density-Dependent Dispersion Contributions
     J. Chem. Theory Comput. 2019 15(3), 1652-1671
     doi.org/10.1021/acs.jctc.8b01176
  2. Neese, F.
     Software update: the ORCA program system, version 6.0
     WIRES Comput. Molec. Sci. 2025 15(1), e70019
     doi.org/10.1002/wcms.70019

List of papers to cite with high priority. The work reported in these papers was absolutely
necessary for this run to complete.
Our perspective: the developers of density functionals and basis sets usually get cited in chemistry papers
Good! But without the algorithms to do something with them, the functionals or basis sets would not do anything.
Hence, in our opinion, the algorithm design and method developments papers are equally worthy of getting cited

  1. Bannwarth, C.; Caldeweyher, E.; Ehlert, S.; Hansen, A.; Pracht, P.; Seibert, J.; Spicher, S.; Grimme, S.
     Extended tight-binding quantum chemistry methods
     WIRES Comput. Molec. Sci. 2020 11(2), e1493
     doi.org/10.1002/wcms.1493

List of suggested additional citations. These are papers that are important in the 'surrounding' of 
of this run, or papers that preceded the highly important papers. If you like your results we are grateful for a citation.

  1. Neese, F.
     The ORCA program system
     WIRES Comput. Molec. Sci. 2012 2(1), 73-78
     doi.org/10.1002/wcms.81
  2. Neese, F.
     Software update: the ORCA program system, version 4.0
     WIRES Comput. Molec. Sci. 2018 8(1), 1-6
     doi.org/10.1002/wcms.1327
  3. Neese, F.; Wennmohs, F.; Becker, U.; Riplinger, C.
     The ORCA quantum chemistry program package
     J. Chem. Phys. 2020 152(22), 224108
     doi.org/10.1063/5.0004608
  4. Neese, F.
     Software update: The ORCA program system—Version 5.0
     WIRES Comput. Molec. Sci. 2022 12(1), e1606
     doi.org/10.1002/wcms.1606

List of optional additional citations

  1. Neese, F.
     Approximate second-order SCF convergence for spin unrestricted wavefunctions
     Chem. Phys. Lett. 2000 325(1-3), 93-98
     doi.org/10.1016/s0009-2614(00)00662-x

Timings for individual modules:

Sum of individual times          ...        3.803 sec (=   0.063 min)
Geometry relaxation              ...        0.414 sec (=   0.007 min)  10.9 %
XTB module                       ...        3.389 sec (=   0.056 min)  89.1 %
                             ****ORCA TERMINATED NORMALLY****
TOTAL RUN TIME: 0 days 0 hours 0 minutes 4 seconds 327 msec
