
                                 *****************
                                 * O   R   C   A *
                                 *****************

                                            #,                                       
                                            ###                                      
                                            ####                                     
                                            #####                                    
                                            ######                                   
                                           ########,                                 
                                     ,,################,,,,,                         
                               ,,#################################,,                 
                          ,,##########################################,,             
                       ,#########################################, ''#####,          
                    ,#############################################,,   '####,        
                  ,##################################################,,,,####,       
                ,###########''''           ''''###############################       
              ,#####''   ,,,,##########,,,,          '''####'''          '####       
            ,##' ,,,,###########################,,,                        '##       
           ' ,,###''''                  '''############,,,                           
         ,,##''                                '''############,,,,        ,,,,,,###''
      ,#''                                            '''#######################'''  
     '                                                          ''''####''''         
             ,#######,   #######,   ,#######,      ##                                
            ,#'     '#,  ##    ##  ,#'     '#,    #''#        ,####,    ,#,          
            ##       ##  ##   ,#'  ##            #'  '#       #'       ,# #          
            ##       ##  #######   ##           ,######,      #####,      #          
            '#,     ,#'  ##    ##  '#,     ,#' ,#      #,     #,   #      #          
             '#######'   ##     ##  '#######'  #'      '#     '####' #    #          



                #########################################################
                #                        -***-                          #
                #          Department of theory and spectroscopy        #
                #                                                       #
                #                      Frank Neese                      #
                #                                                       #
                #     Directorship, Architecture, Infrastructure        #
                #                    SHARK, DRIVERS                     #
                #        Core code/Algorithms in most modules           #
                #                                                       #
                #        Max Planck Institute fuer Kohlenforschung      #
                #                Kaiser Wilhelm Platz 1                 #
                #                 D-45470 Muelheim/Ruhr                 #
                #                      Germany                          #
                #                                                       #
                #                  All rights reserved                  #
                #                        -***-                          #
                #########################################################


                         Program Version 6.1.1  -  RELEASE   -
                                (GIT: $487d211c$)
                          ($2025-11-21 10:33:24 +0100$)
                                                                         
                                  - NO-DMRG VERSION -                    
                                                                         


 With contributions from (in alphabetic order):
[Max-Planck-Institut fuer Kohlenforschung]                               
  Daniel Aravena         : Magnetic Suceptibility                        
  Michael Atanasov       : Ab Initio Ligand Field Theory (pilot matlab implementation)
  Alexander A. Auer      : GIAO ZORA, VPT2 properties, NMR spectrum      
  Ute Becker             : All parallelization in ORCA, NUMFREQ, NUMCALC 
  Giovanni Bistoni       : ED, misc. LED, open-shell LED, HFLD           
  Dmytro Bykov           : pre 5.0 version of the SCF Hessian            
  Marcos Casanova-Páez   : Triplet and SCS-CIS(D). UHF-(DLPNO)-IP/EA/STEOM-CCSD. UHF-CVS-IP/STEOM-CCSD   
  Vijay G. Chilkuri      : MRCI spin determinant printing, contributions to CSF-ICE 
  Pauline Colinet        : FMM embedding                                 
  Dipayan Datta          : RHF DLPNO-CCSD density                        
  Achintya Kumar Dutta   : EOM-CC, STEOM-CC                              
  Nicolas Foglia         : Exact transition moments, OPA infrastructure, MCD improvements    
  Dmitry Ganyushin       : Spin-Orbit,Spin-Spin,Magnetic field MRCI      
  Miquel Garcia-Rates    : C-PCM and meta-GGA Hessian, CCSD/C-PCM, Gaussian charge scheme 
  Tiago L. C. Gouveia    : GS-ROHF, GS-ROCIS                             
  Yang Guo               : DLPNO-NEVPT2, F12-NEVPT2, CIM, IAO-localization        
  Andreas Hansen         : Spin unrestricted coupled pair/coupled cluster methods 
  Ingolf Harden          : AUTO-CI MPn and infrastructure                
  Benjamin Helmich-Paris : MC-RPA, TRAH-(SCF,CASSCF), AVAS, COSX integrals, SCF dyn. polar., MC-PDFT, srDFT 
  Lee Huntington         : MR-EOM, pCC                                   
  Robert Izsak           : Overlap fitted RIJCOSX, COSX-SCS-MP3, EOM     
  Riya Kayal             : Wick's Theorem for AUTO-CI, AUTO-CI UHF-CCSDT 
  Emily Kempfer          : AUTO-CI RHF CISDT and CCSDT, approximate NEVPT4
  Christian Kollmar      : KDIIS, OOCD, Brueckner-CCSD(T), CCSD density, CASPT2, CASPT2-K, improved NEVPT2 
  Axel Koslowski         : Symmetry handling                             
  Simone Kossmann        : meta-GGA functionals, TD-DFT gradient, OOMP2, (MP2 Hessian; deprecated post 5.0) 
  Lucas Lang             : DCDCAS, Hyperfine gauge corrections, ICE-SOC+SSC
  Marvin Lechner         : AUTO-CI (C++ implementation), FIC-MRCC        
  Spencer Leger          : CASSCF response                               
  Dagmar Lenk            : GEPOL surface, SMD, ORCA-2-JSON               
  Dimitrios Liakos       : Extrapolation schemes; Compound Job, Property file
  Dimitrios Manganas     : Further ROCIS development; embedding schemes. LFT, Crystal Embedding 
  Dimitrios Pantazis     : SARC Basis sets                               
  Anastasios Papadopoulos: AUTO-CI, single reference methods and gradients 
  Taras Petrenko         : pre 6.0 DFT Hessian and TD-DFT gradient,  ECA, NRVS 
  Petra Pikulova         : Analytic Raman intensities                    
  Peter Pinski           : DLPNO-MP2, DLPNO-MP2 Gradient                 
  Shashank Vittal Rao    : ES-AILFT, MagRelax                            
  Christoph Reimann      : Effective Core Potentials                     
  Marius Retegan         : Local ZFS, SOC                                
  Christoph Riplinger    : Optimizer, TS searches, QM/MM, DLPNO-CCSD(T), (RO)-DLPNO pert. Triples 
  Michael Roemelt        : Original ROCIS implementation, recursive CI coupling coefficients
  Masaaki Saitow         : Open-shell DLPNO-CCSD energy and density      
  Barbara Sandhoefer     : DKH picture change effects                    
  Yorick L. A. Schmerwitz: GMF and freeze-and-release deltaSCF, NEB S-IDPP initial path                    
  Kantharuban Sivalingam : CASSCF convergence/infrastructure, NEVPT2, NEVPT3, NEVPT4(SD), FIC-MRCI and CEPA variants
  Bernardo de Souza      : ESD, SOC TD-DFT                               
  Georgi L. Stoychev     : AutoAux, RI-MP2 NMR, DLPNO-MP2 response, X2C  
  Van Anh Tran           : RI-MP2 g-tensors                              
  Willem Van den Heuvel  : Paramagnetic NMR                              
  Zikuan Wang            : NOTCH, Electric field optimization            
  Frank Wennmohs         : Technical directorship and infrastructure     
  Hang Xu                : AUTO-CI-Response properties                   
                                                                         
[FACCTs GmbH]                                                            
  Markus Bursch, Nicolas Foglia, Miquel Garcia-Rates, Ingolf Harden, Hagen Neugebauer, Anastasios Papadopoulos, 
  Christoph Riplinger, Bernardo de Souza, Georgi L. Stoychev                                                    
                                                                 
  APM, various basis sets, CI-OPT, improved COSX, DLPNO-Multilevel,           
  DOCKER, DRACO, updates on ESD, Fragmentator, GOAT, IRC, LR-CPCM, L-BFGS, MBIS, meta-GGA TD-DFT gradient, ML-optimized integration grids, 
  MM, NACMEs, nearIR, NEB, NEB-TS, NL-DFT gradient (VV10), 2- and 3-layer-ONIOM, interface openCOSMO-RS, QMMM,   
  Crystal-QMMM, RESP, rigid body optimization, SF, symmetry and pop. for TD-DFT, various functionals, SOLVATOR                                   
                                                                         
[Other institutions]                                                     
  V. Asgeirsson          : NEB                                           
  Christoph Bannwarth    : sTDA-DFT, sTD-DFT, PBEh-3c, B97-3c, D3        
  Giovanni Bistoni       : ETS/NOCV, ADLD/ADEX, COVALED                  
  Martin Brehm           : Molecular dynamics                            
  Ronald Cardenas        : ETS/NOCV                                      
  Martina Colucci        : COVALED                                       
  Sebastian Ehlert       : rSCAN, r2SCAN, r2SCAN-3c, D4, dhf basis sets  
  Marvin Friede          : D4 for Fr, Ra, Ac-Lr                          
  Lars Goerigk           : TD-DFT with DH, B97 family of functionals     
  Stefan Grimme          : VdW corrections, initial TS optimization, DFT functionals, gCP, sTDA/sTD-DF 
  Waldemar Hujo          : DFT-NL                                        
  H. Jonsson             : NEB                                           
  Holger Kruse           : gCP                                           
  Marcel Mueller         : wB97X-3c, vDZP basis set                      
  Hagen Neugebauer       : wr2SCAN, Native XTB                           
  Gianluca Regni         : ADLD/ADEX                                     
  Tobias Risthaus        : pre 6.0 range-separated hybrid DFT and stability analysis
  Lukas Wittmann         : regularized MP2, r2SCAN double-hybrids, wr2SCAN        
                                                                         
We gratefully acknowledge several colleagues who have allowed us to      
interface, adapt or use parts of their codes:                            
  Ed Valeev, F. Pavosevic, A. Kumar             : LibInt (2-el integral package), F12 methods 
  Garnet Chan, S. Sharma, J. Yang, R. Olivares  : DMRG                   
  Ulf Ekstrom                                   : XCFun DFT Library      
  Mihaly Kallay                                 : mrcc  (arbitrary order and MRCC methods)
  Frank Weinhold                                : gennbo (NPA and NBO analysis)           
  Simon Mueller                                 : openCOSMO-RS                            
  Christopher J. Cramer and Donald G. Truhlar   : smd solvation model                     
  S Lehtola, MJT Oliveira, MAL Marques          : LibXC Library                           
  Liviu Ungur et al                             : ANISO software                          


 Your calculation uses the libint2 library for the computation of 2-el integrals
 For citations please refer to: http://libint.valeyev.net

 Your ORCA version has been built with support for libXC version: 7.0.0
 For citations please refer to: https://libxc.gitlab.io

 This ORCA versions uses:
   CBLAS   interface :  Fast vector & matrix operations
   LAPACKE interface :  Fast linear algebra routines
   SCALAPACK package :  Parallel linear algebra routines
   Shared memory     :  Shared parallel matrices
   BLAS/LAPACK       :  OpenBLAS 0.3.29  USE64BITINT DYNAMIC_ARCH NO_AFFINITY Zen SINGLE_THREADED
        Core in use  :  Zen
   Copyright (c) 2011-2014, The OpenBLAS Project


  ***********************************
  * Starting time: Fri Apr 17 12:14:45 2026
  * Host name:     vmi3233575
  * Process ID:    338994
  * Working dir.:  /root/orca_b12_vps_pack/jobs/01_xtb/mult_3
  ***********************************

NOTE: MaxCore=500 MB was set to SCF,MP2,MDCI,CIPSI,MRCI,RASCI and CIS
      => If you want to overwrite this, your respective input block should be placed after the MaxCore statement


***************************************
The coordinates will be read from file: ../../../starts/random_d1.90_005.xyz
***************************************


Your calculation utilizes the semiempirical GFN2-xTB method
Please cite in your paper:
Bannwarth, C.; Ehlert S.; Grimme, S. J. Chem. Theory Comput. 2019, 15, 1652.
   

================================================================================

================================================================================
                                        WARNINGS
                       Please study these warnings very carefully!
================================================================================


WARNING: Geometry Optimization
  ===> : Switching off AutoStart
         For restart on a previous wavefunction, please use MOREAD

WARNING: Found dipole moment calculation with XTB calculation
  ===> : Switching off dipole moment calculation

Environment variable XTBEXE for xtb has been set!

================================================================================
                                       INPUT FILE
================================================================================
NAME = random_d1.90_005_m3.inp
|  1> ! GFN2-xTB TightSCF TightOpt
|  2> 
|  3> %pal
|  4>   nprocs 1
|  5> end
|  6> 
|  7> %maxcore 500
|  8> 
|  9> * xyzfile 0 3 ../../../starts/random_d1.90_005.xyz
| 10> 
| 11>                          ****END OF INPUT****
================================================================================

                       *****************************
                       * Geometry Optimization Run *
                       *****************************

Geometry optimization settings:
Update method            Update   .... BFGS
Choice of coordinates    CoordSys .... (2022) Redundant Internals
Initial Hessian          InHess   .... Almloef's Model
Max. no of cycles        MaxIter  .... 50

Convergence Tolerances:
Energy Change            TolE     ....  1.0000e-06 Eh
Max. Gradient            TolMAXG  ....  1.0000e-04 Eh/bohr
RMS Gradient             TolRMSG  ....  3.0000e-05 Eh/bohr
Max. Displacement        TolMAXD  ....  1.0000e-03 bohr
RMS Displacement         TolRMSD  ....  6.0000e-04 bohr
Strict Convergence                .... False

------------------------------------------------------------------------------
                        ORCA OPTIMIZATION COORDINATE SETUP
------------------------------------------------------------------------------

The optimization will be done in redundant internal coordinates (2022)
Making redundant internal coordinates   ...  (2022 redundants) done
Evaluating the initial hessian          ...  (Almloef) done
Evaluating the coordinates              ...  done
Calculating the B-matrix                .... done
Calculating the G-matrix                .... done
The number of degrees of freedom        ....  250

    -----------------------------------------------------------------
                    Redundant Internal Coordinates


    -----------------------------------------------------------------
         Definition                    Initial Value    Approx d2E/dq
    -----------------------------------------------------------------
      1. B(B   4,B   2)                  4.1659         0.010000   
      2. B(B   5,B   4)                  3.5591         0.010000   
      3. B(B   5,B   1)                  3.1350         0.010000   
      4. B(B   5,B   3)                  2.2552         0.034911   
      5. B(B   5,B   2)                  4.1077         0.010000   
      6. B(B   6,B   5)                  3.8312         0.010000   
      7. B(B   6,B   1)                  1.9434         0.109759   
      8. B(B   6,B   4)                  1.3238         1.068847   
      9. B(B   7,B   5)                  1.8641         0.146887   
     10. B(B   7,B   0)                  3.8202         0.010000   
     11. B(B   7,B   3)                  2.3271         0.026806   
     12. B(B   8,B   6)                  3.1180         0.010000   
     13. B(B   8,B   4)                  2.6035         0.010000   
     14. B(B   8,B   0)                  1.8498         0.154816   
     15. B(B   9,B   5)                  3.9232         0.010000   
     16. B(B   9,B   0)                  3.8311         0.010000   
     17. B(B   9,B   7)                  3.3494         0.010000   
     18. B(B  10,B   8)                  1.9103         0.123938   
     19. B(B  10,B   0)                  1.9737         0.098203   
     20. B(B  10,B   9)                  3.2335         0.010000   
     21. B(B  11,B   2)                  1.7961         0.188541   
     22. B(B  11,B   5)                  3.5069         0.010000   
     23. B(B  11,B   9)                  3.2912         0.010000   
     24. A(B   8,B   0,B   9)          105.0589         0.125995   
     25. A(B   8,B   0,B  10)           59.8471         0.262325   
     26. A(B   7,B   0,B   9)           51.9218         0.096188   
     27. A(B   7,B   0,B  10)          100.1156         0.122677   
     28. A(B   9,B   0,B  10)           57.5375         0.122373   
     29. A(B   7,B   0,B   8)          108.3114         0.126332   
     30. A(B   5,B   1,B   6)           95.0538         0.150053   
     31. A(B   4,B   2,B   5)           50.9525         0.093285   
     32. A(B   4,B   2,B  11)           95.0979         0.118283   
     33. A(B   5,B   2,B  11)           58.0854         0.119735   
     34. A(B   5,B   3,B   7)           47.9760         0.181220   
     35. A(B   5,B   4,B   6)           91.5704         0.160823   
     36. A(B   6,B   4,B   8)           99.9478         0.247978   
     37. A(B   5,B   4,B   8)           86.8713         0.113783   
     38. A(B   2,B   4,B   6)          137.3372         0.132368   
     39. A(B   2,B   4,B   8)          111.8604         0.103964   
     40. A(B   2,B   4,B   5)           63.6778         0.095761   
     41. A(B   4,B   5,B   7)          129.0297         0.134833   
     42. A(B   3,B   5,B   7)           68.0318         0.224529   
     43. A(B   2,B   5,B   7)          130.4109         0.118047   
     44. A(B   4,B   5,B  11)           82.9695         0.100694   
     45. A(B   9,B   5,B  11)           52.2194         0.097639   
     46. A(B   6,B   5,B   7)          127.2500         0.125553   
     47. A(B   1,B   5,B  11)          123.3494         0.105639   
     48. A(B   1,B   5,B   6)           30.3501         0.101706   
     49. A(B   2,B   5,B   6)           82.0868         0.094659   
     50. A(B   1,B   5,B   7)          127.5590         0.154215   
     51. A(B   1,B   5,B   3)           70.2950         0.136109   
     52. A(B   3,B   5,B   4)          114.1256         0.122108   
     53. A(B   3,B   5,B   6)           94.3504         0.115405   
     54. A(B   7,B   5,B  11)          104.8565         0.136868   
     55. A(B   1,B   5,B   9)          140.5413         0.100770   
     56. A(B   7,B   5,B   9)           58.4744         0.122862   
     57. A(B   2,B   5,B   3)          158.4841         0.109983   
     58. A(B   3,B   5,B   9)          125.9445         0.113461   
     59. A(B   2,B   5,B   9)           74.5632         0.094242   
     60. A(B   6,B   5,B   9)          111.0871         0.095597   
     61. A(B   2,B   5,B  11)           25.7695         0.096411   
     62. A(B   1,B   5,B   4)           49.2847         0.104931   
     63. A(B   2,B   5,B   4)           65.3697         0.096096   
     64. A(B   1,B   5,B   2)           98.2913         0.099097   
     65. A(B   6,B   5,B  11)          102.3460         0.098326   
     66. A(B   3,B   5,B  11)          162.4851         0.123578   
     67. A(B   4,B   5,B   6)           20.2069         0.097930   
     68. A(B   4,B   5,B   9)           94.6463         0.097272   
     69. A(B   5,B   6,B   8)           75.5401         0.101886   
     70. A(B   4,B   6,B   5)           68.2227         0.146281   
     71. A(B   1,B   6,B   5)           54.5961         0.123220   
     72. A(B   4,B   6,B   8)           55.3312         0.192649   
     73. A(B   1,B   6,B   4)          117.9238         0.364244   
     74. A(B   1,B   6,B   8)          121.3833         0.150921   
     75. A(B   3,B   7,B   9)          155.9047         0.126128   
     76. A(B   0,B   7,B   9)           64.2067         0.099729   
     77. A(B   0,B   7,B   5)           86.6448         0.125890   
     78. A(B   5,B   7,B   9)           93.2052         0.143565   
     79. A(B   0,B   7,B   3)          104.5554         0.114102   
     80. A(B   3,B   7,B   5)           63.9922         0.216662   
     81. A(B   4,B   8,B  10)          111.4856         0.186623   
     82. A(B   0,B   8,B   4)          128.6932         0.191664   
     83. A(B   4,B   8,B   6)           24.7210         0.124765   
     84. A(B   0,B   8,B  10)           63.2991         0.271701   
     85. A(B   6,B   8,B  10)          133.6500         0.152647   
     86. A(B   0,B   8,B   6)          122.4190         0.155934   
     87. A(B   5,B   9,B  11)           57.3682         0.099336   
     88. A(B   0,B   9,B  11)          104.8938         0.100159   
     89. A(B   7,B   9,B  11)           82.3752         0.105656   
     90. A(B  10,B   9,B  11)           91.1062         0.107341   
     91. A(B   0,B   9,B   5)           64.7270         0.095598   
     92. A(B   5,B   9,B   7)           28.3204         0.098848   
     93. A(B   5,B   9,B  10)           77.2728         0.099844   
     94. A(B   0,B   9,B   7)           63.8715         0.099632   
     95. A(B   0,B   9,B  10)           30.9982         0.100708   
     96. A(B   7,B   9,B  10)           88.5812         0.106475   
     97. A(B   8,B  10,B   9)          128.4153         0.146819   
     98. A(B   0,B  10,B   9)           91.4643         0.143852   
     99. A(B   0,B  10,B   8)           56.8538         0.253814   
    100. A(B   2,B  11,B   5)           96.1451         0.139651   
    101. A(B   2,B  11,B   9)          144.5172         0.149599   
    102. A(B   5,B  11,B   9)           70.4125         0.103612   
    103. D(B   8,B   4,B   2,B   5)     74.6873         0.010000   
    104. D(B   6,B   4,B   2,B  11)   -101.4546         0.010000   
    105. D(B   8,B   4,B   2,B  11)     33.7806         0.010000   
    106. D(B   6,B   4,B   2,B   5)    -60.5479         0.010000   
    107. D(B   5,B   4,B   2,B  11)    -40.9067         0.010000   
    108. D(B   7,B   5,B   2,B  11)      8.4931         0.010000   
    109. D(B   7,B   5,B   4,B   6)    -93.0612         0.010000   
    110. D(B   1,B   5,B   4,B   6)     16.6728         0.010000   
    111. D(B   3,B   5,B   2,B  11)   -136.5951         0.010000   
    112. D(B   6,B   5,B   4,B   8)     99.8795         0.010000   
    113. D(B  11,B   5,B   1,B   6)    -51.8741         0.010000   
    114. D(B   4,B   5,B   3,B   7)   -124.2883         0.010000   
    115. D(B   4,B   5,B   1,B   6)    -11.3107         0.010000   
    116. D(B   1,B   5,B   2,B  11)    167.4191         0.010000   
    117. D(B   9,B   5,B   3,B   7)     -8.5438         0.010000   
    118. D(B  11,B   5,B   3,B   7)     68.9279         0.010000   
    119. D(B   1,B   5,B   3,B   7)   -147.4221         0.010000   
    120. D(B   7,B   5,B   4,B   2)    123.1189         0.010000   
    121. D(B   7,B   5,B   4,B   8)      6.8183         0.010000   
    122. D(B   2,B   5,B   3,B   7)    151.9730         0.010000   
    123. D(B   2,B   5,B   1,B   6)    -58.3834         0.010000   
    124. D(B   6,B   5,B   3,B   7)   -128.6002         0.010000   
    125. D(B   7,B   5,B   2,B   4)   -121.2973         0.010000   
    126. D(B   3,B   5,B   2,B   4)     93.6146         0.010000   
    127. D(B   9,B   5,B   1,B   6)     17.3634         0.010000   
    128. D(B   7,B   5,B   1,B   6)    101.4122         0.010000   
    129. D(B   4,B   5,B   2,B  11)    129.7903         0.010000   
    130. D(B   1,B   5,B   2,B   4)     37.6287         0.010000   
    131. D(B   1,B   5,B   4,B   8)    116.5523         0.010000   
    132. D(B   3,B   5,B   1,B   6)    140.4560         0.010000   
    133. D(B   3,B   5,B   4,B   8)     87.3440         0.010000   
    134. D(B   6,B   5,B   2,B   4)     11.8802         0.010000   
    135. D(B   6,B   5,B   4,B   2)   -143.8199         0.010000   
    136. D(B   3,B   5,B   4,B   6)    -12.5355         0.010000   
    137. D(B   1,B   5,B   4,B   2)   -127.1471         0.010000   
    138. D(B   6,B   5,B   2,B  11)    141.6705         0.010000   
    139. D(B   4,B   6,B   5,B   1)   -154.5084         0.010000   
    140. D(B   4,B   6,B   5,B   7)    102.9646         0.010000   
    141. D(B   4,B   6,B   5,B   3)    168.5415         0.010000   
    142. D(B   1,B   6,B   5,B   2)    121.7039         0.010000   
    143. D(B   1,B   6,B   5,B  11)    137.7261         0.010000   
    144. D(B   1,B   6,B   5,B   9)   -168.2717         0.010000   
    145. D(B   1,B   6,B   5,B   3)    -36.9501         0.010000   
    146. D(B   1,B   6,B   5,B   4)    154.5084         0.010000   
    147. D(B   8,B   6,B   1,B   5)    -37.5880         0.010000   
    148. D(B   1,B   6,B   4,B   2)     27.9395         0.067112   
    149. D(B   8,B   6,B   4,B   5)     87.0982         0.067112   
    150. D(B   1,B   6,B   4,B   5)    -23.3921         0.067112   
    151. D(B   1,B   6,B   4,B   8)   -110.4903         0.067112   
    152. D(B   1,B   6,B   5,B   7)   -102.5270         0.010000   
    153. D(B   5,B   6,B   4,B   8)    -87.0982         0.067112   
    154. D(B   4,B   6,B   5,B   9)     37.2199         0.010000   
    155. D(B   8,B   6,B   4,B   2)    138.4297         0.067112   
    156. D(B   4,B   6,B   1,B   5)     26.8932         0.010000   
    157. D(B   0,B   7,B   3,B   5)     78.8159         0.010000   
    158. D(B   9,B   7,B   3,B   5)     20.1869         0.010000   
    159. D(B   3,B   7,B   0,B   9)   -157.2230         0.010000   
    160. D(B   3,B   7,B   0,B  10)   -123.5708         0.010000   
    161. D(B   3,B   7,B   0,B   8)    -62.1527         0.010000   
    162. D(B   0,B   7,B   5,B   1)    -68.2305         0.010000   
    163. D(B   5,B   7,B   0,B   8)     -0.1243         0.010000   
    164. D(B   5,B   7,B   0,B   9)    -95.1946         0.010000   
    165. D(B   3,B   7,B   5,B   6)     78.2302         0.010000   
    166. D(B   5,B   7,B   0,B  10)    -61.5424         0.010000   
    167. D(B   3,B   7,B   5,B   1)     39.7514         0.010000   
    168. D(B   0,B   7,B   5,B   2)     85.0995         0.010000   
    169. D(B   0,B   7,B   5,B  11)     88.9084         0.010000   
    170. D(B   0,B   7,B   5,B   9)     63.9064         0.010000   
    171. D(B   0,B   7,B   5,B   3)   -107.9820         0.010000   
    172. D(B   3,B   7,B   5,B   4)    103.9082         0.010000   
    173. D(B   0,B   7,B   5,B   6)    -29.7517         0.010000   
    174. D(B   0,B   7,B   5,B   4)     -4.0737         0.010000   
    175. D(B  10,B   8,B   6,B   5)     42.7918         0.010000   
    176. D(B  10,B   8,B   6,B   4)    -30.5001         0.010000   
    177. D(B  10,B   8,B   6,B   1)     73.6859         0.010000   
    178. D(B   0,B   8,B   6,B   4)   -113.0418         0.010000   
    179. D(B   0,B   8,B   6,B   1)     -8.8559         0.010000   
    180. D(B  10,B   8,B   4,B   2)      5.7350         0.010000   
    181. D(B  10,B   8,B   4,B   5)     65.7075         0.010000   
    182. D(B  10,B   8,B   4,B   6)    156.7549         0.010000   
    183. D(B   0,B   8,B   4,B   2)    -66.6021         0.010000   
    184. D(B   0,B   8,B   4,B   5)     -6.6296         0.010000   
    185. D(B   0,B   8,B   4,B   6)     84.4177         0.010000   
    186. D(B   6,B   8,B   0,B  10)    126.5742         0.010000   
    187. D(B   4,B   8,B   0,B   9)     60.0778         0.010000   
    188. D(B   0,B   8,B   6,B   5)    -39.7499         0.010000   
    189. D(B   4,B   8,B   0,B   7)      5.7886         0.010000   
    190. D(B   4,B   8,B   0,B  10)     97.0324         0.010000   
    191. D(B  10,B   8,B   0,B   9)    -36.9545         0.010000   
    192. D(B  10,B   8,B   0,B   7)    -91.2437         0.010000   
    193. D(B   5,B   9,B   7,B   3)    -18.0968         0.010000   
    194. D(B   5,B   9,B   7,B   0)    -84.7117         0.010000   
    195. D(B   0,B   9,B   7,B   3)     66.6149         0.010000   
    196. D(B   0,B   9,B   7,B   5)     84.7117         0.010000   
    197. D(B  10,B   9,B   7,B   0)    -19.4565         0.010000   
    198. D(B  10,B   9,B   7,B   5)     65.2552         0.010000   
    199. D(B   7,B   9,B   5,B   3)      9.3018         0.010000   
    200. D(B   7,B   9,B   5,B   4)    133.7364         0.010000   
    201. D(B   7,B   9,B   5,B   1)    112.3357         0.010000   
    202. D(B  10,B   9,B   5,B   2)     85.1480         0.010000   
    203. D(B  10,B   9,B   5,B  11)     99.6786         0.010000   
    204. D(B  10,B   9,B   5,B   3)   -102.1427         0.010000   
    205. D(B  10,B   9,B   5,B   6)     10.1918         0.010000   
    206. D(B  10,B   9,B   5,B   4)     22.2919         0.010000   
    207. D(B  10,B   9,B   5,B   1)      0.8912         0.010000   
    208. D(B   7,B   9,B   5,B   6)    121.6363         0.010000   
    209. D(B  10,B   9,B   5,B   7)   -111.4445         0.010000   
    210. D(B   5,B   9,B   0,B   7)     31.4922         0.010000   
    211. D(B   5,B   9,B   0,B  10)   -108.2246         0.010000   
    212. D(B  10,B   9,B   7,B   3)     47.1584         0.010000   
    213. D(B   5,B   9,B   0,B   8)    -70.1924         0.010000   
    214. D(B   7,B   9,B   0,B  10)   -139.7168         0.010000   
    215. D(B   7,B   9,B   0,B   8)   -101.6846         0.010000   
    216. D(B  10,B   9,B   0,B   7)    139.7168         0.010000   
    217. D(B  10,B   9,B   0,B   8)     38.0322         0.010000   
    218. D(B   0,B  10,B   9,B   5)     61.7098         0.010000   
    219. D(B   0,B  10,B   9,B   7)     35.4977         0.010000   
    220. D(B   9,B  10,B   8,B   6)    -49.0751         0.010000   
    221. D(B   9,B  10,B   8,B   4)    -62.2606         0.010000   
    222. D(B   9,B  10,B   8,B   0)     61.3848         0.010000   
    223. D(B   0,B  10,B   8,B   6)   -110.4599         0.010000   
    224. D(B   0,B  10,B   8,B   4)   -123.6453         0.010000   
    225. D(B   9,B  10,B   0,B   7)    -31.1308         0.010000   
    226. D(B   9,B  10,B   0,B   8)   -136.5242         0.010000   
    227. D(B   8,B  10,B   0,B   9)    136.5242         0.010000   
    228. D(B   0,B  10,B   9,B  11)    117.8415         0.010000   
    229. D(B   8,B  10,B   0,B   7)    105.3933         0.010000   
    230. D(B   8,B  10,B   9,B   5)     14.3815         0.010000   
    231. D(B   8,B  10,B   9,B   0)    -47.3283         0.010000   
    232. D(B   8,B  10,B   9,B   7)    -11.8306         0.010000   
    233. D(B   5,B  11,B   9,B   7)     14.3234         0.010000   
    234. D(B   5,B  11,B   9,B  10)    -74.0967         0.010000   
    235. D(B   2,B  11,B   9,B   5)     72.3357         0.010000   
    236. D(B   2,B  11,B   9,B   0)     26.3530         0.010000   
    237. D(B   2,B  11,B   9,B   7)     86.6592         0.010000   
    238. D(B   9,B  11,B   5,B   4)    101.4703         0.010000   
    239. D(B   9,B  11,B   5,B   1)    131.2474         0.010000   
    240. D(B   9,B  11,B   5,B   7)    -27.1183         0.010000   
    241. D(B   2,B  11,B   5,B   9)   -146.2006         0.010000   
    242. D(B   2,B  11,B   5,B   3)    123.1335         0.010000   
    243. D(B   2,B  11,B   5,B   6)    -38.9631         0.010000   
    244. D(B   2,B  11,B   9,B  10)     -1.7609         0.010000   
    245. D(B   2,B  11,B   5,B   4)    -44.7304         0.010000   
    246. D(B   2,B  11,B   5,B   1)    -14.9532         0.010000   
    247. D(B   2,B  11,B   5,B   7)   -173.3189         0.010000   
    248. D(B   5,B  11,B   2,B   4)     36.8070         0.010000   
    249. D(B   9,B  11,B   2,B   4)    -27.7347         0.010000   
    250. D(B   9,B  11,B   2,B   5)    -64.5416         0.010000   
    -----------------------------------------------------------------

Number of atoms                         .... 12
Number of degrees of freedom            .... 250


         *************************************************************
         *                GEOMETRY OPTIMIZATION CYCLE   1            *
         *************************************************************
---------------------------------
CARTESIAN COORDINATES (ANGSTROEM)
---------------------------------
  B    -0.431916    0.281774   -2.871062
  B     0.062216   -3.154971    0.903593
  B     1.950345    1.625983    2.901728
  B    -2.845611   -1.854785    0.882209
  B     1.965197   -1.310450   -0.053211
  B    -1.227218   -0.309017    1.160513
  B     1.563559   -2.565461   -0.180517
  B    -2.683261    0.368443    0.214025
  B     1.225126   -0.364837   -2.363314
  B    -1.110940    3.232381   -0.523713
  B     0.986746    1.529516   -2.300091
  B     0.545756    2.521424    2.229841

----------------------------
CARTESIAN COORDINATES (A.U.)
----------------------------
  NO LB    ZA    FRAG    MASS        X           Y           Z
   0 B   5.0000    0    10.810   -0.816204    0.532476   -5.425520
   1 B   5.0000    0    10.810    0.117571   -5.962031    1.707542
   2 B   5.0000    0    10.810    3.685617    3.072663    5.483471
   3 B   5.0000    0    10.810   -5.377425   -3.505036    1.667134
   4 B   5.0000    0    10.810    3.713685   -2.476392   -0.100554
   5 B   5.0000    0    10.810   -2.319106   -0.583957    2.193051
   6 B   5.0000    0    10.810    2.954699   -4.848019   -0.341127
   7 B   5.0000    0    10.810   -5.070629    0.696256    0.404448
   8 B   5.0000    0    10.810    2.315152   -0.689443   -4.466017
   9 B   5.0000    0    10.810   -2.099372    6.108315   -0.989675
  10 B   5.0000    0    10.810    1.864680    2.890367   -4.346543
  11 B   5.0000    0    10.810    1.031330    4.764800    4.213788

      -----------------------------------------------------------      
     |                   =====================                   |     
     |                           x T B                           |     
     |                   =====================                   |     
     |                         S. Grimme                         |     
     |          Mulliken Center for Theoretical Chemistry        |     
     |                    University of Bonn                     |     
      -----------------------------------------------------------      

   * xtb version 6.6.1 (unknown) compiled by 'builduser@buildhost' on 2023-08-07

   xtb is free software: you can redistribute it and/or modify it under
   the terms of the GNU Lesser General Public License as published by
   the Free Software Foundation, either version 3 of the License, or
   (at your option) any later version.
   
   xtb is distributed in the hope that it will be useful,
   but WITHOUT ANY WARRANTY; without even the implied warranty of
   MERCHANTABILITY or FITNESS FOR A PARTICULAR PURPOSE.  See the
   GNU Lesser General Public License for more details.
   
   Cite this work as:
   * C. Bannwarth, E. Caldeweyher, S. Ehlert, A. Hansen, P. Pracht,
     J. Seibert, S. Spicher, S. Grimme, WIREs Comput. Mol. Sci., 2020, 11,
     e01493. DOI: 10.1002/wcms.1493
   
   for GFN2-xTB:
   * C. Bannwarth, S. Ehlert and S. Grimme., J. Chem. Theory Comput., 2019,
     15, 1652-1671. DOI: 10.1021/acs.jctc.8b01176
   for GFN1-xTB:
   * S. Grimme, C. Bannwarth, P. Shushkov, J. Chem. Theory Comput., 2017,
     13, 1989-2009. DOI: 10.1021/acs.jctc.7b00118
   for GFN0-xTB:
   * P. Pracht, E. Caldeweyher, S. Ehlert, S. Grimme, ChemRxiv, 2019, preprint.
     DOI: 10.26434/chemrxiv.8326202.v1
   for GFN-FF:
   * S. Spicher and S. Grimme, Angew. Chem. Int. Ed., 2020, 59, 15665-15673.
     DOI: 10.1002/anie.202004239
   
   for ALPB and GBSA implicit solvation:
   * S. Ehlert, M. Stahn, S. Spicher, S. Grimme, J. Chem. Theory Comput.,
     2021, 17, 4250-4261. DOI: 10.1021/acs.jctc.1c00471
   
   for DFT-D4:
   * E. Caldeweyher, C. Bannwarth and S. Grimme, J. Chem. Phys., 2017,
     147, 034112. DOI: 10.1063/1.4993215
   * E. Caldeweyher, S. Ehlert, A. Hansen, H. Neugebauer, S. Spicher,
     C. Bannwarth and S. Grimme, J. Chem. Phys., 2019, 150, 154122.
     DOI: 10.1063/1.5090222
   * E. Caldeweyher, J.-M. Mewes, S. Ehlert and S. Grimme, Phys. Chem. Chem. Phys.
     2020, 22, 8499-8512. DOI: 10.1039/D0CP00502A
   
   for sTDA-xTB:
   * S. Grimme and C. Bannwarth, J. Chem. Phys., 2016, 145, 054103.
     DOI: 10.1063/1.4959605
   
   in the mass-spec context:
   * V. Asgeirsson, C. Bauer and S. Grimme, Chem. Sci., 2017, 8, 4879.
     DOI: 10.1039/c7sc00601b
   * J. Koopman and S. Grimme, ACS Omega 2019, 4, 12, 15120-15133.
     DOI: 10.1021/acsomega.9b02011
   
   for metadynamics refer to:
   * S. Grimme, J. Chem. Theory Comput., 2019, 155, 2847-2862
     DOI: 10.1021/acs.jctc.9b00143
   
   for SPH calculations refer to:
   * S. Spicher and S. Grimme, J. Chem. Theory Comput., 2021, 17, 1701-1714
     DOI: 10.1021/acs.jctc.0c01306
   
   with help from (in alphabetical order)
   P. Atkinson, C. Bannwarth, F. Bohle, G. Brandenburg, E. Caldeweyher
   M. Checinski, S. Dohm, S. Ehlert, S. Ehrlich, I. Gerasimov, C. Hölzer
   A. Katbashev, J. Koopman, C. Lavigne, S. Lehtola, F. März, M. Müller,
   F. Musil, H. Neugebauer, J. Pisarek, C. Plett, P. Pracht, F. Pultar,
   J. Seibert, P. Shushkov, S. Spicher, M. Stahn, M. Steiner, T. Strunk,
   J. Stückrath, T. Rose, and J. Unsleber
   
 * started run on 2026/04/17 at 12:14:45.650     

           -------------------------------------------------
          |                Calculation Setup                |
           -------------------------------------------------

          program call               : /usr/bin/xtb random_d1.90_005_m3_XTB.xyz --grad -c 0 -u 2 -P 1 --namespace random_d1.90_005_m3 --input random_d1.90_005_m3_XTB.input.tmp --acc 0.200000
          calculation namespace      : random_d1.90_005_m3
          coordinate file            : random_d1.90_005_m3_XTB.xyz
          omp threads                :                     1

   ID    Z sym.   atoms
    1    5 B      1-12

molecular fragmentation (1/2 indicates fragments):
122222221212
# atoms in fragment 1/2:     3     9
 fragment masses (1/2) :       32.43       97.30
CMA distance (Bohr)    :   6.615
constraining FC (au)   :  0.0500

           -------------------------------------------------
          |                 G F N 2 - x T B                 |
           -------------------------------------------------

        Reference                      10.1021/acs.jctc.8b01176
      * Hamiltonian:
        H0-scaling (s, p, d)           1.850000    2.230000    2.230000
        zeta-weighting                 0.500000
      * Dispersion:
        s8                             2.700000
        a1                             0.520000
        a2                             5.000000
        s9                             5.000000
      * Repulsion:
        kExp                           1.500000    1.000000
        rExp                           1.000000
      * Coulomb:
        alpha                          2.000000
        third order                    shell-resolved
        anisotropic                    true
        a3                             3.000000
        a5                             4.000000
        cn-shift                       1.200000
        cn-exp                         4.000000
        max-rad                        5.000000


          ...................................................
          :                      SETUP                      :
          :.................................................:
          :  # basis functions                  48          :
          :  # atomic orbitals                  48          :
          :  # shells                           24          :
          :  # electrons                        36          :
          :  max. iterations                   250          :
          :  Hamiltonian                  GFN2-xTB          :
          :  restarted?                      false          :
          :  GBSA solvation                  false          :
          :  PC potential                    false          :
          :  electronic temp.          300.0000000     K    :
          :  accuracy                    0.2000000          :
          :  -> integral cutoff          0.3198970E+02      :
          :  -> integral neglect         0.2000000E-08      :
          :  -> SCF convergence          0.2000000E-06 Eh   :
          :  -> wf. convergence          0.2000000E-04 e    :
          :  Broyden damping             0.4000000          :
          ...................................................

 iter      E             dE          RMSdq      gap      omega  full diag
   1    -12.4865126 -0.124865E+02  0.185E+01    0.06       0.0  T
   2      5.8798612  0.183664E+02  0.249E+01    0.07       1.0  T
   3     22.9632717  0.170834E+02  0.283E+01    0.10       1.0  T
   4     12.8574100 -0.101059E+02  0.272E+01    0.20       1.0  T
   5     -4.3454673 -0.172029E+02  0.169E+01    0.27       1.0  T
   6     10.0476680  0.143931E+02  0.231E+01    0.88       1.0  T
   7     -7.7941041 -0.178418E+02  0.143E+01    0.03       1.0  T
   8     -9.2219418 -0.142784E+01  0.124E+01    0.08       1.0  T
   9    -10.1621368 -0.940195E+00  0.113E+01    0.35       1.0  T
  10    -10.7565489 -0.594412E+00  0.921E+00    0.06       1.0  T
  11    -11.8179047 -0.106136E+01  0.811E+00    0.14       1.0  T
  12     -9.3895903  0.242831E+01  0.108E+01    0.11       1.0  T
  13    -11.9432982 -0.255371E+01  0.774E+00    0.20       1.0  T
  14    -12.3602247 -0.416927E+00  0.681E+00    0.21       1.0  T
  15    -11.4964974  0.863727E+00  0.787E+00    0.12       1.0  T
  16    -12.3337890 -0.837292E+00  0.676E+00    0.12       1.0  T
  17    -12.0765524  0.257237E+00  0.760E+00    0.07       1.0  T
  18    -11.9591970  0.117355E+00  0.782E+00    0.05       1.0  T
  19    -11.9500425  0.915447E-02  0.787E+00    0.05       1.0  T
  20    -12.1254445 -0.175402E+00  0.695E+00    0.05       1.0  T
  21    -12.5965329 -0.471088E+00  0.533E+00    0.10       1.0  T
  22    -12.6308112 -0.342784E-01  0.486E+00    0.11       1.0  T
  23    -12.7087025 -0.778913E-01  0.457E+00    0.09       1.0  T
  24    -12.7197878 -0.110853E-01  0.455E+00    0.09       1.0  T
  25    -12.6338523  0.859355E-01  0.498E+00    0.12       1.0  T
  26    -12.7386201 -0.104768E+00  0.461E+00    0.08       1.0  T
  27    -12.7756069 -0.369868E-01  0.442E+00    0.05       1.0  T
  28    -12.7759819 -0.374959E-03  0.443E+00    0.03       1.0  T
  29    -12.8133271 -0.373452E-01  0.423E+00    0.02       1.0  T
  30    -12.7939034  0.194238E-01  0.396E+00    0.07       1.0  T
  31    -12.8470292 -0.531259E-01  0.340E+00    0.08       1.0  T
  32    -12.9283587 -0.813294E-01  0.290E+00    0.06       1.0  T
  33    -12.9308359 -0.247721E-02  0.283E+00    0.05       1.0  T
  34    -12.9375217 -0.668584E-02  0.271E+00    0.05       1.0  T
  35    -12.9442143 -0.669253E-02  0.232E+00    0.06       1.0  T
  36    -12.9313269  0.128873E-01  0.199E+00    0.06       1.0  T
  37    -12.9470278 -0.157009E-01  0.172E+00    0.06       1.0  T
  38    -12.9282243  0.188035E-01  0.175E+00    0.05       1.0  T
  39    -12.9396097 -0.113854E-01  0.161E+00    0.05       1.0  T
  40    -12.9565087 -0.168990E-01  0.159E+00    0.07       1.0  T
  41    -12.9588712 -0.236257E-02  0.153E+00    0.07       1.0  T
  42    -12.9754834 -0.166121E-01  0.102E+00    0.06       1.0  T
  43    -12.9791669 -0.368356E-02  0.883E-01    0.06       1.0  T
  44    -12.9795397 -0.372733E-03  0.785E-01    0.06       1.0  T
  45    -12.9786897  0.849963E-03  0.794E-01    0.06       1.0  T
  46    -12.9808874 -0.219766E-02  0.697E-01    0.06       1.0  T
  47    -12.9794533  0.143412E-02  0.713E-01    0.06       1.0  T
  48    -12.9793038  0.149473E-03  0.720E-01    0.06       1.0  T
  49    -12.9834939 -0.419012E-02  0.503E-01    0.06       1.0  T
  50    -12.9852220 -0.172814E-02  0.401E-01    0.05       1.0  T
  51    -12.9870075 -0.178548E-02  0.260E-01    0.05       1.0  T
  52    -12.9876255 -0.618004E-03  0.162E-01    0.05       1.0  T
  53    -12.9878930 -0.267504E-03  0.129E-01    0.05       1.0  T
  54    -12.9879635 -0.704421E-04  0.108E-01    0.05       1.0  T
  55    -12.9880345 -0.709738E-04  0.821E-02    0.05       1.0  T
  56    -12.9880331  0.138294E-05  0.737E-02    0.05       1.0  T
  57    -12.9879255  0.107556E-03  0.907E-02    0.05       1.0  T
  58    -12.9880072 -0.816400E-04  0.612E-02    0.05       1.0  T
  59    -12.9880345 -0.273213E-04  0.452E-02    0.05       1.0  T
  60    -12.9880376 -0.310157E-05  0.425E-02    0.05       1.0  T
  61    -12.9880468 -0.921395E-05  0.363E-02    0.05       1.0  T
  62    -12.9880481 -0.129881E-05  0.278E-02    0.05       1.0  T
  63    -12.9880504 -0.229087E-05  0.226E-02    0.05       1.3  T
  64    -12.9880526 -0.217523E-05  0.172E-02    0.05       1.7  T
  65    -12.9880537 -0.115993E-05  0.106E-02    0.05       2.7  T
  66    -12.9880537 -0.197013E-07  0.638E-03    0.05       4.5  T
  67    -12.9880537  0.534089E-07  0.604E-03    0.05       4.8  T
  68    -12.9880536  0.498934E-07  0.476E-03    0.05       6.1  T
  69    -12.9880538 -0.157506E-06  0.351E-03    0.05       8.2  T
  70    -12.9880539 -0.140445E-06  0.237E-03    0.05      12.2  T
  71    -12.9880540 -0.579279E-07  0.164E-03    0.05      17.6  T
  72    -12.9880540 -0.421407E-07  0.845E-04    0.05      34.2  T
  73    -12.9880540 -0.108534E-07  0.541E-04    0.05      53.4  T
  74    -12.9880540 -0.624000E-08  0.177E-04    0.05     163.4  T
  75    -12.9880540  0.615312E-10  0.168E-04    0.05     172.1  T

   *** convergence criteria satisfied after 75 iterations ***

         #    Occupation            Energy/Eh            Energy/eV
      -------------------------------------------------------------
         1        2.0000           -0.4097026             -11.1486
       ...           ...                  ...                  ...
        13        2.0000           -0.2688800              -7.3166
        14        2.0000           -0.2650573              -7.2126
        15        2.0000           -0.2633673              -7.1666
        16        1.9943           -0.2582160              -7.0264
        17        1.8796           -0.2551962              -6.9442
        18        1.0094           -0.2511218              -6.8334
        19        0.7903           -0.2499409              -6.8012 (HOMO)
        20        0.3261           -0.2481278              -6.7519 (LUMO)
        21        0.0002           -0.2407729              -6.5518
        22        0.0001           -0.2403103              -6.5392
        23        0.0000           -0.2385958              -6.4925
        24                         -0.2312795              -6.2934
       ...                                ...                  ...
        48                          1.8022078              49.0406
      -------------------------------------------------------------
                  HL-Gap            0.0018131 Eh            0.0493 eV
             Fermi-level           -0.2510661 Eh           -6.8319 eV

 transition dipole moment (au) for excitation:          18          19
     X       Y       Z   
   0.2228   0.2199  -1.9033  total (au/Debye):    1.929   4.903
 dE (eV)             :    0.032
 oscillator strength :  0.41423E-02

 SCC (total)                   0 d,  0 h,  0 min,  0.122 sec
 SCC setup                      ...        0 min,  0.000 sec (  0.119%)
 Dispersion                     ...        0 min,  0.000 sec (  0.098%)
 classical contributions        ...        0 min,  0.000 sec (  0.027%)
 integral evaluation            ...        0 min,  0.007 sec (  5.315%)
 iterations                     ...        0 min,  0.107 sec ( 87.284%)
 molecular gradient             ...        0 min,  0.005 sec (  4.007%)
 printout                       ...        0 min,  0.004 sec (  3.125%)

         :::::::::::::::::::::::::::::::::::::::::::::::::::::
         ::                     SUMMARY                     ::
         :::::::::::::::::::::::::::::::::::::::::::::::::::::
         :: total energy             -12.888446810383 Eh    ::
         :: gradient norm              0.437616542832 Eh/a0 ::
         :: HOMO-LUMO gap              0.049336377762 eV    ::
         ::.................................................::
         :: SCC energy               -12.988054044686 Eh    ::
         :: -> isotropic ES            0.056848483765 Eh    ::
         :: -> anisotropic ES          0.002460706922 Eh    ::
         :: -> anisotropic XC         -0.036612302496 Eh    ::
         :: -> dispersion             -0.017366533797 Eh    ::
         :: repulsion energy           0.099293601864 Eh    ::
         :: add. restraining           0.000000000000 Eh    ::
         :: total charge              -0.000000000000 e     ::
         :::::::::::::::::::::::::::::::::::::::::::::::::::::


Property printout bound to 'properties.out'

           -------------------------------------------------
          | TOTAL ENERGY              -12.888446810383 Eh   |
          | GRADIENT NORM               0.437616542832 Eh/α |
          | HOMO-LUMO GAP               0.049336377762 eV   |
           -------------------------------------------------

------------------------------------------------------------------------
 * finished run on 2026/04/17 at 12:14:45.785     
------------------------------------------------------------------------
 total:
 * wall-time:     0 d,  0 h,  0 min,  0.136 sec
 *  cpu-time:     0 d,  0 h,  0 min,  0.103 sec
 * ratio c/w:     0.757 speedup
 SCF:
 * wall-time:     0 d,  0 h,  0 min,  0.123 sec
 *  cpu-time:     0 d,  0 h,  0 min,  0.092 sec
 * ratio c/w:     0.747 speedup


-------------------------   --------------------
FINAL SINGLE POINT ENERGY       -12.888446810380
-------------------------   --------------------


-------------
DIPOLE MOMENT
-------------
                                X             Y             Z
Total Dipole Moment    :      0.67800       0.46800       0.18000
                        -----------------------------------------
Magnitude (a.u.)       :      0.84327
Magnitude (Debye)      :      2.14343


------------------
CARTESIAN GRADIENT
------------------

   1   B   :   -0.131508723   -0.021171399   -0.043954710
   2   B   :   -0.041970723   -0.039319596    0.048796256
   3   B   :    0.088713469   -0.054940407    0.044233025
   4   B   :   -0.053883847   -0.073701037    0.005963487
   5   B   :   -0.044244821   -0.166484253    0.012866464
   6   B   :    0.108300664    0.000437453    0.060358283
   7   B   :    0.111930110    0.177414830   -0.033994700
   8   B   :   -0.083165480    0.076047852   -0.064119923
   9   B   :    0.078286431   -0.081114644   -0.013049257
  10   B   :   -0.016064166    0.020892864   -0.012997651
  11   B   :    0.057501676    0.105942572    0.018787160
  12   B   :   -0.073894589    0.055995766   -0.022888435

Difference to translation invariance:
           :   -0.0000000000   -0.0000000000   -0.0000000000

Difference to rotation invariance:
           :   -0.0000000256   -0.0000000453   -0.0000000452

Norm of the Cartesian gradient     ...    0.4376165428
RMS gradient                       ...    0.0729360905
MAX gradient                       ...    0.1774148297
------------------------------------------------------------------------------
                         ORCA GEOMETRY RELAXATION STEP
------------------------------------------------------------------------------

Reading the OPT-File                    .... done
Getting information on internals        .... done
Copying old internal coords+grads       .... done
Making the new internal coordinates     .... (2022 redundants) done
Validating the new internal coordinates .... (2022 redundants) done
Calculating the B-matrix                .... done
Calculating the G,G- and P matrices     .... done
Transforming gradient to internals      .... done
Projecting the internal gradient        .... done
Number of atoms                         ....  12
Number of internal coordinates          .... 250
Current Energy                          ....   -12.888446810 Eh
Current gradient norm                   ....     0.437616543 Eh/bohr
Maximum allowed component of the step   ....  0.300
Current trust radius                    ....  0.300
Evaluating the initial hessian          ....  (Almloef) done
Projecting the Hessian                  .... done
Forming the augmented Hessian           .... done
Diagonalizing the augmented Hessian     .... done
Last element of RFO vector              ....  0.790179443
Lowest eigenvalues of augmented Hessian:
 -0.181996812  0.011758774  0.012171738  0.013149963  0.014295203
Length of the computed step             ....  0.775615667
Warning: the length of the step is outside the trust region - taking restricted step instead
The input lambda is                     ....     0.009693
   iter:   5  x=    0.001136  g=10668.815661 f(x)=    40.737671
   iter:  10  x=   -0.187412  g=   13.237835 f(x)=     1.113959
   iter:  15  x=   -0.652097  g=    0.234685 f(x)=     0.002230
The output lambda is                    ....    -0.652277 (18 iterations)
The final length of the internal step   ....  0.300000000
Converting the step to Cartesian space:
 Initial RMS(Int)=    0.0189736660
Transforming coordinates:
 Iter   0:  RMS(Cart)=    0.0362900636 RMS(Int)=    0.0189792411
done
Storing new coordinates                 .... done

                                .--------------------.
          ----------------------|Geometry convergence|-------------------------
          Item                value                   Tolerance       Converged
          ---------------------------------------------------------------------
          RMS gradient        0.0160648486            0.0000300000      NO
          MAX gradient        0.1064147209            0.0001000000      NO
          RMS step            0.0189736660            0.0006000000      NO
          MAX step            0.1099497138            0.0010000000      NO
          -------------------------------------------------------------------------
          ........................................................
          Max(Bonds)      0.0582      Max(Angles)    0.88
          Max(Dihed)        1.23      Max(Improp)    0.00
          ---------------------------------------------------------------------

The optimization has not yet converged - more geometry cycles are needed


    ---------------------------------------------------------------------------
                         Redundant Internal Coordinates
                            (Angstroem and degrees)

        Definition                    Value    dE/dq     Step     New-Value
    ----------------------------------------------------------------------------
     1. B(B   4,B   2)                4.1659  0.012510 -0.0047    4.1612   
     2. B(B   5,B   4)                3.5591  0.021596 -0.0139    3.5452   
     3. B(B   5,B   1)                3.1350  0.003148 -0.0064    3.1286   
     4. B(B   5,B   3)                2.2552  0.058647 -0.0448    2.2104   
     5. B(B   5,B   2)                4.1077  0.011413 -0.0105    4.0972   
     6. B(B   6,B   5)                3.8312  0.002616 -0.0071    3.8241   
     7. B(B   6,B   1)                1.9434  0.062132 -0.0420    1.9014   
     8. B(B   6,B   4)                1.3238 -0.106415  0.0427    1.3666   
     9. B(B   7,B   5)                1.8641  0.073622 -0.0513    1.8128   
    10. B(B   7,B   0)                3.8202  0.006138 -0.0040    3.8161   
    11. B(B   7,B   3)                2.3271  0.057966 -0.0437    2.2834   
    12. B(B   8,B   6)                3.1180 -0.020259  0.0046    3.1225   
    13. B(B   8,B   4)                2.6035  0.035888 -0.0222    2.5814   
    14. B(B   8,B   0)                1.8498  0.082593 -0.0548    1.7950   
    15. B(B   9,B   5)                3.9232  0.024851 -0.0179    3.9053   
    16. B(B   9,B   0)                3.8311  0.006271 -0.0056    3.8254   
    17. B(B   9,B   7)                3.3494  0.003320 -0.0033    3.3461   
    18. B(B  10,B   8)                1.9103  0.060896 -0.0413    1.8691   
    19. B(B  10,B   0)                1.9737  0.066603 -0.0475    1.9262   
    20. B(B  10,B   9)                3.2335  0.000837 -0.0015    3.2320   
    21. B(B  11,B   2)                1.7961  0.090083 -0.0582    1.7380   
    22. B(B  11,B   5)                3.5069 -0.012983  0.0062    3.5131   
    23. B(B  11,B   9)                3.2912  0.020930 -0.0156    3.2756   
    24. A(B   8,B   0,B   9)          105.06 -0.005090    0.39    105.45   
    25. A(B   8,B   0,B  10)           59.85 -0.004045    0.32     60.17   
    26. A(B   7,B   0,B   9)           51.92 -0.000325    0.02     51.94   
    27. A(B   7,B   0,B  10)          100.12  0.000879   -0.09    100.03   
    28. A(B   9,B   0,B  10)           57.54 -0.000761    0.06     57.60   
    29. A(B   7,B   0,B   8)          108.31  0.001010   -0.13    108.18   
    30. A(B   5,B   1,B   6)           95.05 -0.012059    0.82     95.87   
    31. A(B   4,B   2,B   5)           50.95  0.001600   -0.11     50.84   
    32. A(B   4,B   2,B  11)           95.10 -0.000091    0.10     95.20   
    33. A(B   5,B   2,B  11)           58.09 -0.004035    0.30     58.39   
    34. A(B   5,B   3,B   7)           47.98  0.006646   -0.42     47.55   
    35. A(B   5,B   4,B   6)           91.57  0.009396   -0.46     91.11   
    36. A(B   6,B   4,B   8)           99.95  0.003730    0.02     99.97   
    37. A(B   5,B   4,B   8)           86.87 -0.002271    0.09     86.96   
    38. A(B   2,B   4,B   6)          137.34  0.002893   -0.12    137.22   
    39. A(B   2,B   4,B   8)          111.86 -0.001343   -0.21    111.65   
    40. A(B   2,B   4,B   5)           63.68 -0.000894   -0.03     63.65   
    41. A(B   4,B   5,B   7)          129.03  0.003632   -0.20    128.82   
    42. A(B   3,B   5,B   7)           68.03 -0.004289    0.30     68.33   
    43. A(B   2,B   5,B   7)          130.41  0.008775   -0.59    129.82   
    44. A(B   4,B   5,B  11)           82.97  0.009409   -0.51     82.46   
    45. A(B   9,B   5,B  11)           52.22  0.001903   -0.14     52.08   
    46. A(B   6,B   5,B   7)          127.25  0.004311   -0.21    127.04   
    47. A(B   1,B   5,B  11)          123.35  0.001516   -0.29    123.06   
    48. A(B   1,B   5,B   6)           30.35  0.010319   -0.71     29.64   
    49. A(B   2,B   5,B   6)           82.09 -0.014650    0.79     82.88   
    50. A(B   1,B   5,B   7)          127.56  0.005085   -0.23    127.33   
    51. A(B   1,B   5,B   3)           70.29  0.006119   -0.25     70.05   
    52. A(B   3,B   5,B   4)          114.13 -0.001656   -0.05    114.07   
    53. A(B   3,B   5,B   6)           94.35  0.013797   -0.75     93.60   
    54. A(B   7,B   5,B  11)          104.86 -0.003720    0.26    105.12   
    55. A(B   1,B   5,B   9)          140.54  0.004802   -0.45    140.09   
    56. A(B   7,B   5,B   9)           58.47 -0.004106    0.30     58.77   
    57. A(B   2,B   5,B   3)          158.48 -0.004663    0.31    158.80   
    58. A(B   3,B   5,B   9)          125.94 -0.008217    0.58    126.53   
    59. A(B   2,B   5,B   9)           74.56  0.012815   -0.88     73.68   
    60. A(B   6,B   5,B   9)          111.09 -0.005028    0.21    111.30   
    61. A(B   2,B   5,B  11)           25.77  0.012545   -0.85     24.92   
    62. A(B   1,B   5,B   4)           49.28 -0.005532    0.04     49.32   
    63. A(B   2,B   5,B   4)           65.37 -0.000706    0.14     65.51   
    64. A(B   1,B   5,B   2)           98.29 -0.011381    0.60     98.89   
    65. A(B   6,B   5,B  11)          102.35 -0.005398    0.16    102.50   
    66. A(B   3,B   5,B  11)          162.49 -0.007012    0.50    162.99   
    67. A(B   4,B   5,B   6)           20.21 -0.015884    0.72     20.93   
    68. A(B   4,B   5,B   9)           94.65  0.009144   -0.48     94.17   
    69. A(B   5,B   6,B   8)           75.54  0.007153   -0.37     75.17   
    70. A(B   4,B   6,B   5)           68.22  0.006488   -0.26     67.96   
    71. A(B   1,B   6,B   5)           54.60  0.001740   -0.12     54.48   
    72. A(B   4,B   6,B   8)           55.33  0.014572   -0.83     54.50   
    73. A(B   1,B   6,B   4)          117.92  0.005891   -0.21    117.71   
    74. A(B   1,B   6,B   8)          121.38  0.003163   -0.21    121.18   
    75. A(B   3,B   7,B   9)          155.90 -0.007286    0.51    156.41   
    76. A(B   0,B   7,B   9)           64.21  0.000180   -0.03     64.17   
    77. A(B   0,B   7,B   5)           86.64 -0.000839    0.06     86.71   
    78. A(B   5,B   7,B   9)           93.21 -0.005517    0.43     93.63   
    79. A(B   0,B   7,B   3)          104.56 -0.000910    0.07    104.63   
    80. A(B   3,B   7,B   5)           63.99 -0.002357    0.12     64.11   
    81. A(B   4,B   8,B  10)          111.49  0.007868   -0.29    111.20   
    82. A(B   0,B   8,B   4)          128.69 -0.003037    0.25    128.94   
    83. A(B   4,B   8,B   6)           24.72 -0.018302    0.81     25.53   
    84. A(B   0,B   8,B  10)           63.30 -0.002707    0.09     63.39   
    85. A(B   6,B   8,B  10)          133.65 -0.008268    0.41    134.06   
    86. A(B   0,B   8,B   6)          122.42  0.003596   -0.09    122.33   
    87. A(B   5,B   9,B  11)           57.37 -0.006011    0.41     57.78   
    88. A(B   0,B   9,B  11)          104.89  0.004046   -0.32    104.58   
    89. A(B   7,B   9,B  11)           82.38  0.001842   -0.18     82.20   
    90. A(B  10,B   9,B  11)           91.11  0.000672   -0.07     91.04   
    91. A(B   0,B   9,B   5)           64.73  0.002411   -0.16     64.57   
    92. A(B   5,B   9,B   7)           28.32  0.009623   -0.72     27.60   
    93. A(B   5,B   9,B  10)           77.27  0.004175   -0.32     76.95   
    94. A(B   0,B   9,B   7)           63.87  0.000145    0.02     63.89   
    95. A(B   0,B   9,B  10)           31.00  0.010356   -0.79     30.21   
    96. A(B   7,B   9,B  10)           88.58  0.009802   -0.73     87.85   
    97. A(B   8,B  10,B   9)          128.42 -0.005050    0.41    128.82   
    98. A(B   0,B  10,B   9)           91.46 -0.009595    0.73     92.19   
    99. A(B   0,B  10,B   8)           56.85  0.006752   -0.42     56.44   
   100. A(B   2,B  11,B   5)           96.15 -0.008510    0.55     96.70   
   101. A(B   2,B  11,B   9)          144.52 -0.003275    0.20    144.72   
   102. A(B   5,B  11,B   9)           70.41  0.004108   -0.28     70.14   
   103. D(B   8,B   4,B   2,B   5)     74.69 -0.002483    0.22     74.91   
   104. D(B   6,B   4,B   2,B  11)   -101.45 -0.008054    0.52   -100.93   
   105. D(B   8,B   4,B   2,B  11)     33.78  0.002441   -0.03     33.75   
   106. D(B   6,B   4,B   2,B   5)    -60.55 -0.012978    0.78    -59.77   
   107. D(B   5,B   4,B   2,B  11)    -40.91  0.004924   -0.25    -41.16   
   108. D(B   7,B   5,B   2,B  11)      8.49 -0.000302    0.04      8.53   
   109. D(B   7,B   5,B   4,B   6)    -93.06  0.007505   -0.42    -93.48   
   110. D(B   1,B   5,B   4,B   6)     16.67  0.009457   -0.59     16.08   
   111. D(B   3,B   5,B   2,B  11)   -136.60 -0.001125    0.01   -136.58   
   112. D(B   6,B   5,B   4,B   8)     99.88  0.003218    0.05     99.93   
   113. D(B  11,B   5,B   1,B   6)    -51.87 -0.002506    0.31    -51.57   
   114. D(B   4,B   5,B   3,B   7)   -124.29 -0.003193    0.14   -124.15   
   115. D(B   4,B   5,B   1,B   6)    -11.31  0.005841   -0.24    -11.55   
   116. D(B   1,B   5,B   2,B  11)    167.42  0.006270   -0.51    166.91   
   117. D(B   9,B   5,B   3,B   7)     -8.54  0.001852   -0.14     -8.68   
   118. D(B  11,B   5,B   3,B   7)     68.93 -0.017444    1.22     70.15   
   119. D(B   1,B   5,B   3,B   7)   -147.42 -0.006121    0.44   -146.98   
   120. D(B   7,B   5,B   4,B   2)    123.12  0.010757   -0.66    122.46   
   121. D(B   7,B   5,B   4,B   8)      6.82  0.010723   -0.37      6.44   
   122. D(B   2,B   5,B   3,B   7)    151.97  0.003684   -0.18    151.79   
   123. D(B   2,B   5,B   1,B   6)    -58.38 -0.002380    0.27    -58.11   
   124. D(B   6,B   5,B   3,B   7)   -128.60  0.000571   -0.05   -128.65   
   125. D(B   7,B   5,B   2,B   4)   -121.30 -0.004098    0.15   -121.14   
   126. D(B   3,B   5,B   2,B   4)     93.61 -0.004921    0.13     93.74   
   127. D(B   9,B   5,B   1,B   6)     17.36  0.003284   -0.32     17.04   
   128. D(B   7,B   5,B   1,B   6)    101.41  0.005207   -0.37    101.04   
   129. D(B   4,B   5,B   2,B  11)    129.79  0.003796   -0.12    129.67   
   130. D(B   1,B   5,B   2,B   4)     37.63  0.002474   -0.39     37.24   
   131. D(B   1,B   5,B   4,B   8)    116.55  0.012675   -0.55    116.01   
   132. D(B   3,B   5,B   1,B   6)    140.46 -0.000795    0.15    140.61   
   133. D(B   3,B   5,B   4,B   8)     87.34  0.004956   -0.08     87.26   
   134. D(B   6,B   5,B   2,B   4)     11.88 -0.007715    0.32     12.20   
   135. D(B   6,B   5,B   4,B   2)   -143.82  0.003252   -0.24   -144.06   
   136. D(B   3,B   5,B   4,B   6)    -12.54  0.001738   -0.13    -12.66   
   137. D(B   1,B   5,B   4,B   2)   -127.15  0.012709   -0.83   -127.98   
   138. D(B   6,B   5,B   2,B  11)    141.67 -0.003919    0.21    141.88   
   139. D(B   4,B   6,B   5,B   1)   -154.51  0.004383   -0.36   -154.86   
   140. D(B   4,B   6,B   5,B   7)    102.96 -0.003192    0.06    103.02   
   141. D(B   4,B   6,B   5,B   3)    168.54  0.001221   -0.11    168.43   
   142. D(B   1,B   6,B   5,B   2)    121.70 -0.008353    0.59    122.30   
   143. D(B   1,B   6,B   5,B  11)    137.73  0.000193    0.02    137.74   
   144. D(B   1,B   6,B   5,B   9)   -168.27  0.000567   -0.08   -168.36   
   145. D(B   1,B   6,B   5,B   3)    -36.95 -0.003162    0.25    -36.70   
   146. D(B   1,B   6,B   5,B   4)    154.51 -0.004383    0.36    154.86   
   147. D(B   8,B   6,B   1,B   5)    -37.59 -0.013474    0.67    -36.92   
   148. D(B   1,B   6,B   4,B   2)     27.94  0.003064   -0.18     27.76   
   149. D(B   8,B   6,B   4,B   5)     87.10 -0.000599    0.01     87.11   
   150. D(B   1,B   6,B   4,B   5)    -23.39 -0.005862    0.41    -22.99   
   151. D(B   1,B   6,B   4,B   8)   -110.49 -0.005262    0.40   -110.09   
   152. D(B   1,B   6,B   5,B   7)   -102.53 -0.007575    0.41   -102.12   
   153. D(B   5,B   6,B   4,B   8)    -87.10  0.000599   -0.01    -87.11   
   154. D(B   4,B   6,B   5,B   9)     37.22  0.004950   -0.44     36.78   
   155. D(B   8,B   6,B   4,B   2)    138.43  0.008327   -0.58    137.85   
   156. D(B   4,B   6,B   1,B   5)     26.89  0.007560   -0.49     26.40   
   157. D(B   0,B   7,B   3,B   5)     78.82 -0.001333    0.08     78.89   
   158. D(B   9,B   7,B   3,B   5)     20.19 -0.007293    0.52     20.70   
   159. D(B   3,B   7,B   0,B   9)   -157.22  0.008330   -0.58   -157.80   
   160. D(B   3,B   7,B   0,B  10)   -123.57  0.004870   -0.28   -123.85   
   161. D(B   3,B   7,B   0,B   8)    -62.15  0.000877    0.03    -62.12   
   162. D(B   0,B   7,B   5,B   1)    -68.23 -0.002826    0.34    -67.90   
   163. D(B   5,B   7,B   0,B   8)     -0.12 -0.001692    0.16      0.04   
   164. D(B   5,B   7,B   0,B   9)    -95.19  0.005761   -0.45    -95.64   
   165. D(B   3,B   7,B   5,B   6)     78.23  0.012885   -0.66     77.57   
   166. D(B   5,B   7,B   0,B  10)    -61.54  0.002301   -0.15    -61.69   
   167. D(B   3,B   7,B   5,B   1)     39.75 -0.002893    0.36     40.11   
   168. D(B   0,B   7,B   5,B   2)     85.10  0.002943   -0.25     84.85   
   169. D(B   0,B   7,B   5,B  11)     88.91  0.004473   -0.34     88.57   
   170. D(B   0,B   7,B   5,B   9)     63.91  0.000616   -0.07     63.84   
   171. D(B   0,B   7,B   5,B   3)   -107.98  0.000067   -0.02   -108.01   
   172. D(B   3,B   7,B   5,B   4)    103.91 -0.006095    0.20    104.11   
   173. D(B   0,B   7,B   5,B   6)    -29.75  0.012952   -0.69    -30.44   
   174. D(B   0,B   7,B   5,B   4)     -4.07 -0.006028    0.17     -3.90   
   175. D(B  10,B   8,B   6,B   5)     42.79  0.007828   -0.35     42.44   
   176. D(B  10,B   8,B   6,B   4)    -30.50  0.005438   -0.32    -30.82   
   177. D(B  10,B   8,B   6,B   1)     73.69  0.017937   -0.86     72.82   
   178. D(B   0,B   8,B   6,B   4)   -113.04  0.010534   -0.60   -113.64   
   179. D(B   0,B   8,B   6,B   1)     -8.86  0.023032   -1.13     -9.99   
   180. D(B  10,B   8,B   4,B   2)      5.74 -0.007989    0.37      6.10   
   181. D(B  10,B   8,B   4,B   5)     65.71 -0.009716    0.44     66.14   
   182. D(B  10,B   8,B   4,B   6)    156.75 -0.000753   -0.02    156.74   
   183. D(B   0,B   8,B   4,B   2)    -66.60 -0.009643    0.41    -66.19   
   184. D(B   0,B   8,B   4,B   5)     -6.63 -0.011370    0.48     -6.14   
   185. D(B   0,B   8,B   4,B   6)     84.42 -0.002406    0.03     84.45   
   186. D(B   6,B   8,B   0,B  10)    126.57 -0.011566    0.55    127.12   
   187. D(B   4,B   8,B   0,B   9)     60.08  0.009275   -0.41     59.67   
   188. D(B   0,B   8,B   6,B   5)    -39.75  0.012923   -0.62    -40.37   
   189. D(B   4,B   8,B   0,B   7)      5.79  0.010615   -0.49      5.30   
   190. D(B   4,B   8,B   0,B  10)     97.03  0.009802   -0.42     96.61   
   191. D(B  10,B   8,B   0,B   9)    -36.95 -0.000527    0.02    -36.94   
   192. D(B  10,B   8,B   0,B   7)    -91.24  0.000813   -0.07    -91.31   
   193. D(B   5,B   9,B   7,B   3)    -18.10  0.006959   -0.49    -18.58   
   194. D(B   5,B   9,B   7,B   0)    -84.71 -0.001789    0.14    -84.57   
   195. D(B   0,B   9,B   7,B   3)     66.61  0.008748   -0.63     65.99   
   196. D(B   0,B   9,B   7,B   5)     84.71  0.001789   -0.14     84.57   
   197. D(B  10,B   9,B   7,B   0)    -19.46 -0.004282    0.31    -19.15   
   198. D(B  10,B   9,B   7,B   5)     65.26 -0.002493    0.17     65.42   
   199. D(B   7,B   9,B   5,B   3)      9.30 -0.001890    0.14      9.44   
   200. D(B   7,B   9,B   5,B   4)    133.74 -0.000508   -0.03    133.70   
   201. D(B   7,B   9,B   5,B   1)    112.34  0.002900    0.03    112.37   
   202. D(B  10,B   9,B   5,B   2)     85.15 -0.006200    0.42     85.57   
   203. D(B  10,B   9,B   5,B  11)     99.68 -0.000010   -0.00     99.68   
   204. D(B  10,B   9,B   5,B   3)   -102.14 -0.006599    0.47   -101.67   
   205. D(B  10,B   9,B   5,B   6)     10.19  0.002480    0.01     10.20   
   206. D(B  10,B   9,B   5,B   4)     22.29 -0.005216    0.30     22.59   
   207. D(B  10,B   9,B   5,B   1)      0.89 -0.001809    0.37      1.26   
   208. D(B   7,B   9,B   5,B   6)    121.64  0.007188   -0.32    121.31   
   209. D(B  10,B   9,B   5,B   7)   -111.44 -0.004708    0.33   -111.11   
   210. D(B   5,B   9,B   0,B   7)     31.49  0.010344   -0.78     30.71   
   211. D(B   5,B   9,B   0,B  10)   -108.22  0.006215   -0.42   -108.65   
   212. D(B  10,B   9,B   7,B   3)     47.16  0.004466   -0.32     46.84   
   213. D(B   5,B   9,B   0,B   8)    -70.19  0.005303   -0.32    -70.52   
   214. D(B   7,B   9,B   0,B  10)   -139.72 -0.004129    0.36   -139.36   
   215. D(B   7,B   9,B   0,B   8)   -101.68 -0.005040    0.46   -101.23   
   216. D(B  10,B   9,B   0,B   7)    139.72  0.004129   -0.36    139.36   
   217. D(B  10,B   9,B   0,B   8)     38.03 -0.000912    0.10     38.13   
   218. D(B   0,B  10,B   9,B   5)     61.71  0.004165   -0.26     61.45   
   219. D(B   0,B  10,B   9,B   7)     35.50 -0.003597    0.32     35.82   
   220. D(B   9,B  10,B   8,B   6)    -49.08 -0.006469    0.38    -48.70   
   221. D(B   9,B  10,B   8,B   4)    -62.26  0.004281   -0.14    -62.40   
   222. D(B   9,B  10,B   8,B   0)     61.38 -0.002210    0.26     61.64   
   223. D(B   0,B  10,B   8,B   6)   -110.46 -0.004260    0.12   -110.34   
   224. D(B   0,B  10,B   8,B   4)   -123.65  0.006491   -0.39   -124.04   
   225. D(B   9,B  10,B   0,B   7)    -31.13  0.003001   -0.25    -31.39   
   226. D(B   9,B  10,B   0,B   8)   -136.52  0.002421   -0.16   -136.68   
   227. D(B   8,B  10,B   0,B   9)    136.52 -0.002421    0.16    136.68   
   228. D(B   0,B  10,B   9,B  11)    117.84 -0.001549    0.13    117.97   
   229. D(B   8,B  10,B   0,B   7)    105.39  0.000580   -0.10    105.30   
   230. D(B   8,B  10,B   9,B   5)     14.38  0.000956   -0.14     14.24   
   231. D(B   8,B  10,B   9,B   0)    -47.33 -0.003209    0.12    -47.20   
   232. D(B   8,B  10,B   9,B   7)    -11.83 -0.006806    0.45    -11.39   
   233. D(B   5,B  11,B   9,B   7)     14.32  0.006483   -0.48     13.85   
   234. D(B   5,B  11,B   9,B  10)    -74.10 -0.003361    0.26    -73.84   
   235. D(B   2,B  11,B   9,B   5)     72.34 -0.007037    0.45     72.78   
   236. D(B   2,B  11,B   9,B   0)     26.35 -0.000177   -0.08     26.28   
   237. D(B   2,B  11,B   9,B   7)     86.66 -0.000553   -0.03     86.63   
   238. D(B   9,B  11,B   5,B   4)    101.47  0.003640   -0.17    101.30   
   239. D(B   9,B  11,B   5,B   1)    131.25  0.005831   -0.48    130.77   
   240. D(B   9,B  11,B   5,B   7)    -27.12 -0.002190    0.15    -26.96   
   241. D(B   2,B  11,B   5,B   9)   -146.20  0.000962   -0.06   -146.26   
   242. D(B   2,B  11,B   5,B   3)    123.13  0.017742   -1.23    121.90   
   243. D(B   2,B  11,B   5,B   6)    -38.96 -0.001406    0.10    -38.87   
   244. D(B   2,B  11,B   9,B  10)     -1.76 -0.010398    0.71     -1.05   
   245. D(B   2,B  11,B   5,B   4)    -44.73  0.004602   -0.22    -44.95   
   246. D(B   2,B  11,B   5,B   1)    -14.95  0.006794   -0.53    -15.49   
   247. D(B   2,B  11,B   5,B   7)   -173.32 -0.001228    0.10   -173.22   
   248. D(B   5,B  11,B   2,B   4)     36.81 -0.001400    0.01     36.82   
   249. D(B   9,B  11,B   2,B   4)    -27.73  0.002160   -0.21    -27.94   
   250. D(B   9,B  11,B   2,B   5)    -64.54  0.003561   -0.22    -64.76   
    ----------------------------------------------------------------------------

Geometry step timings:
Preparation and reading OPT file:      0.000 s ( 0.191 %)
Internal coordinates            :      0.000 s ( 0.405 %)
B/P matrices and projection     :      0.004 s (21.153 %)
Hessian update/contruction      :      0.004 s (21.010 %)
Making the step                 :      0.010 s (48.222 %)
Converting the step to Cartesian:      0.000 s ( 1.478 %)
Storing new data                :      0.000 s ( 0.238 %)
Checking convergence            :      0.000 s ( 0.467 %)
Final printing                  :      0.001 s ( 6.826 %)
Total time                      :      0.021 s

Time for energy+gradient        :      0.148 s
Time for complete geometry iter :      0.171 s

         *************************************************************
         *                GEOMETRY OPTIMIZATION CYCLE   2            *
         *************************************************************
---------------------------------
CARTESIAN COORDINATES (ANGSTROEM)
---------------------------------
  B    -0.397095    0.275967   -2.847666
  B     0.057830   -3.145379    0.873382
  B     1.917165    1.656623    2.878765
  B    -2.812416   -1.835072    0.878885
  B     1.948342   -1.287805   -0.061313
  B    -1.235682   -0.310392    1.153288
  B     1.531830   -2.583067   -0.187968
  B    -2.650690    0.348382    0.231040
  B     1.208660   -0.354629   -2.351497
  B    -1.102147    3.220628   -0.509754
  B     0.979983    1.499124   -2.283897
  B     0.554221    2.515620    2.226735

----------------------------
CARTESIAN COORDINATES (A.U.)
----------------------------
  NO LB    ZA    FRAG    MASS        X           Y           Z
   0 B   5.0000    0    10.810   -0.750401    0.521501   -5.381309
   1 B   5.0000    0    10.810    0.109283   -5.943904    1.650453
   2 B   5.0000    0    10.810    3.622916    3.130564    5.440078
   3 B   5.0000    0    10.810   -5.314696   -3.467783    1.660853
   4 B   5.0000    0    10.810    3.681833   -2.433599   -0.115865
   5 B   5.0000    0    10.810   -2.335100   -0.586555    2.179399
   6 B   5.0000    0    10.810    2.894738   -4.881290   -0.355209
   7 B   5.0000    0    10.810   -5.009078    0.658346    0.436601
   8 B   5.0000    0    10.810    2.284037   -0.670152   -4.443685
   9 B   5.0000    0    10.810   -2.082757    6.086105   -0.963295
  10 B   5.0000    0    10.810    1.851899    2.832933   -4.315940
  11 B   5.0000    0    10.810    1.047325    4.753834    4.207918

      -----------------------------------------------------------      
     |                   =====================                   |     
     |                           x T B                           |     
     |                   =====================                   |     
     |                         S. Grimme                         |     
     |          Mulliken Center for Theoretical Chemistry        |     
     |                    University of Bonn                     |     
      -----------------------------------------------------------      

   * xtb version 6.6.1 (unknown) compiled by 'builduser@buildhost' on 2023-08-07

   xtb is free software: you can redistribute it and/or modify it under
   the terms of the GNU Lesser General Public License as published by
   the Free Software Foundation, either version 3 of the License, or
   (at your option) any later version.
   
   xtb is distributed in the hope that it will be useful,
   but WITHOUT ANY WARRANTY; without even the implied warranty of
   MERCHANTABILITY or FITNESS FOR A PARTICULAR PURPOSE.  See the
   GNU Lesser General Public License for more details.
   
   Cite this work as:
   * C. Bannwarth, E. Caldeweyher, S. Ehlert, A. Hansen, P. Pracht,
     J. Seibert, S. Spicher, S. Grimme, WIREs Comput. Mol. Sci., 2020, 11,
     e01493. DOI: 10.1002/wcms.1493
   
   for GFN2-xTB:
   * C. Bannwarth, S. Ehlert and S. Grimme., J. Chem. Theory Comput., 2019,
     15, 1652-1671. DOI: 10.1021/acs.jctc.8b01176
   for GFN1-xTB:
   * S. Grimme, C. Bannwarth, P. Shushkov, J. Chem. Theory Comput., 2017,
     13, 1989-2009. DOI: 10.1021/acs.jctc.7b00118
   for GFN0-xTB:
   * P. Pracht, E. Caldeweyher, S. Ehlert, S. Grimme, ChemRxiv, 2019, preprint.
     DOI: 10.26434/chemrxiv.8326202.v1
   for GFN-FF:
   * S. Spicher and S. Grimme, Angew. Chem. Int. Ed., 2020, 59, 15665-15673.
     DOI: 10.1002/anie.202004239
   
   for ALPB and GBSA implicit solvation:
   * S. Ehlert, M. Stahn, S. Spicher, S. Grimme, J. Chem. Theory Comput.,
     2021, 17, 4250-4261. DOI: 10.1021/acs.jctc.1c00471
   
   for DFT-D4:
[...]
    64. A(B   1,B   5,B   2)          119.86  0.002079   -0.84    119.02   
    65. A(B   6,B   5,B  11)          117.75  0.001404   -0.35    117.41   
    66. A(B   3,B   5,B  11)          161.77  0.000989   -0.44    161.34   
    67. A(B   4,B   5,B   6)           29.10  0.002338   -0.17     28.93   
    68. A(B   4,B   5,B   9)           86.51  0.000849   -1.18     85.33   
    69. A(B   5,B   6,B   8)           70.36 -0.003178    1.27     71.63   
    70. A(B   4,B   6,B   5)           89.41 -0.001927    1.22     90.63   
    71. A(B   1,B   6,B   5)           35.56 -0.000019   -0.90     34.66   
    72. A(B   4,B   6,B   8)           22.85  0.001533    0.59     23.44   
    73. A(B   1,B   6,B   4)          120.38 -0.001611   -0.17    120.21   
    74. A(B   1,B   6,B   8)           98.13 -0.003050    0.40     98.53   
    75. A(B   3,B   7,B   9)          111.70 -0.002153    0.19    111.89   
    76. A(B   0,B   7,B   9)           36.02 -0.000579   -0.41     35.60   
    77. A(B   0,B   7,B   5)           56.53  0.000184    0.10     56.63   
    78. A(B   5,B   7,B   9)           45.49  0.000359    0.71     46.20   
    79. A(B   0,B   7,B   3)           92.64 -0.000441   -0.45     92.19   
    80. A(B   3,B   7,B   5)           71.56 -0.002916   -0.17     71.39   
    81. A(B   4,B   8,B  10)          129.16  0.005500   -0.49    128.67   
    82. A(B   0,B   8,B   4)          175.32  0.000414    0.62    175.94   
    83. A(B   4,B   8,B   6)           22.57  0.002126   -0.05     22.52   
    84. A(B   0,B   8,B  10)           51.79 -0.005502    0.30     52.08   
    85. A(B   6,B   8,B  10)          111.60  0.003826   -0.95    110.65   
    86. A(B   0,B   8,B   6)          154.53 -0.001851    0.19    154.72   
    87. A(B   5,B   9,B  11)           69.33  0.000545   -1.09     68.24   
    88. A(B   0,B   9,B  11)          138.81 -0.000199   -0.19    138.62   
    89. A(B   7,B   9,B  11)           90.87  0.000696   -1.59     89.28   
    90. A(B  10,B   9,B  11)          138.01 -0.000370    0.50    138.51   
    91. A(B   0,B   9,B   5)          109.34 -0.000274    0.80    110.14   
    92. A(B   5,B   9,B   7)           37.82 -0.000707   -0.21     37.60   
    93. A(B   5,B   9,B  10)          109.92 -0.000145    0.67    110.59   
    94. A(B   0,B   9,B   7)          113.14 -0.000932    1.10    114.23   
    95. A(B   0,B   9,B  10)            1.07  0.000228   -0.45      0.63   
    96. A(B   7,B   9,B  10)          114.16 -0.000716    0.71    114.88   
    97. A(B   8,B  10,B   9)          124.13 -0.004125    0.18    124.31   
    98. A(B   0,B  10,B   9)          177.79 -0.000648    1.70    179.49   
    99. A(B   0,B  10,B   8)           55.92  0.004134   -0.12     55.80   
   100. A(B   2,B  11,B   5)          119.72 -0.001678    0.60    120.31   
   101. A(B   2,B  11,B   9)          158.15  0.001238    0.44    158.59   
   102. A(B   5,B  11,B   9)           63.76  0.001474    0.82     64.58   
   103. D(B   8,B   4,B   2,B   5)     78.66 -0.001276   -0.36     78.30   
   104. D(B   6,B   4,B   2,B  11)    -97.77  0.000955    0.54    -97.23   
   105. D(B   8,B   4,B   2,B  11)     39.35 -0.002454   -0.91     38.44   
   106. D(B   6,B   4,B   2,B   5)    -58.46  0.002133    1.09    -57.37   
   107. D(B   5,B   4,B   2,B  11)    -39.31 -0.001178   -0.55    -39.85   
   108. D(B   7,B   5,B   2,B  11)    -62.93 -0.000678   -1.13    -64.06   
   109. D(B   7,B   5,B   4,B   6)    -86.14  0.002686   -1.09    -87.23   
   110. D(B   1,B   5,B   4,B   6)    -15.98  0.000401    0.27    -15.71   
   111. D(B   3,B   5,B   2,B  11)   -142.51 -0.000999   -0.12   -142.63   
   112. D(B   6,B   5,B   4,B   8)    156.90 -0.001645   -0.25    156.65   
   113. D(B  11,B   5,B   1,B   6)    -41.62  0.000437   -0.39    -42.01   
   114. D(B   4,B   5,B   3,B   7)   -140.53 -0.000725    0.56   -139.96   
   115. D(B   4,B   5,B   1,B   6)     15.80  0.000114   -0.18     15.61   
   116. D(B   1,B   5,B   2,B  11)    157.03  0.002311   -1.31    155.72   
   117. D(B   9,B   5,B   3,B   7)    -46.09  0.001096   -0.46    -46.55   
   118. D(B  11,B   5,B   3,B   7)     50.22 -0.003941    0.79     51.01   
   119. D(B   1,B   5,B   3,B   7)   -171.47 -0.002263    0.72   -170.75   
   120. D(B   7,B   5,B   4,B   2)    166.22  0.000134   -0.16    166.06   
   121. D(B   7,B   5,B   4,B   8)     70.76  0.001041   -1.35     69.42   
   122. D(B   2,B   5,B   3,B   7)    106.89  0.000043   -0.62    106.27   
   123. D(B   2,B   5,B   1,B   6)    -57.56  0.000650   -1.08    -58.64   
   124. D(B   6,B   5,B   3,B   7)   -160.76 -0.001750    0.65   -160.10   
   125. D(B   7,B   5,B   2,B   4)   -166.60 -0.000080    0.56   -166.04   
   126. D(B   3,B   5,B   2,B   4)    113.82 -0.000401    1.57    115.40   
   127. D(B   9,B   5,B   1,B   6)     38.21  0.003753   -1.37     36.84   
   128. D(B   7,B   5,B   1,B   6)    151.68  0.001938   -1.71    149.97   
   129. D(B   4,B   5,B   2,B  11)    103.67 -0.000598   -1.69    101.97   
   130. D(B   1,B   5,B   2,B   4)     53.36  0.002909    0.38     53.75   
   131. D(B   1,B   5,B   4,B   8)    140.92 -0.001244    0.02    140.94   
   132. D(B   3,B   5,B   1,B   6)    158.33  0.000038   -0.10    158.23   
   133. D(B   3,B   5,B   4,B   8)    112.94  0.000119   -0.27    112.66   
   134. D(B   6,B   5,B   2,B   4)     28.27  0.001906    0.14     28.41   
   135. D(B   6,B   5,B   4,B   2)   -107.64 -0.002552    0.93   -106.71   
   136. D(B   3,B   5,B   4,B   6)    -43.97  0.001764   -0.02    -43.99   
   137. D(B   1,B   5,B   4,B   2)   -123.62 -0.002151    1.20   -122.42   
   138. D(B   6,B   5,B   2,B  11)    131.93  0.001308   -1.55    130.38   
   139. D(B   4,B   6,B   5,B   1)    152.12  0.000741    0.44    152.56   
   140. D(B   4,B   6,B   5,B   7)    117.30  0.003713   -1.37    115.93   
   141. D(B   4,B   6,B   5,B   3)    135.36  0.001468    0.01    135.37   
   142. D(B   1,B   6,B   5,B   2)    131.60  0.001634   -1.36    130.24   
   143. D(B   1,B   6,B   5,B  11)    152.76  0.001822   -0.63    152.13   
   144. D(B   1,B   6,B   5,B   9)   -154.38  0.000743   -0.59   -154.97   
   145. D(B   1,B   6,B   5,B   3)    -16.76  0.000728   -0.43    -17.19   
   146. D(B   1,B   6,B   5,B   4)   -152.12 -0.000741   -0.44   -152.56   
   147. D(B   8,B   6,B   1,B   5)    -38.40  0.000988   -0.17    -38.57   
   148. D(B   1,B   6,B   4,B   2)     57.82 -0.001069   -1.60     56.22   
   149. D(B   8,B   6,B   4,B   5)     32.72 -0.000200   -0.40     32.32   
   150. D(B   1,B   6,B   4,B   5)     18.38 -0.000788   -0.24     18.14   
   151. D(B   1,B   6,B   4,B   8)    -14.34 -0.000587    0.16    -14.18   
   152. D(B   1,B   6,B   5,B   7)    -34.82  0.002972   -1.81    -36.63   
   153. D(B   5,B   6,B   4,B   8)    -32.72  0.000200    0.40    -32.32   
   154. D(B   4,B   6,B   5,B   9)     -2.26  0.001484   -0.15     -2.41   
   155. D(B   8,B   6,B   4,B   2)     72.17 -0.000482   -1.76     70.41   
   156. D(B   4,B   6,B   1,B   5)    -32.83  0.001525    0.64    -32.19   
   157. D(B   0,B   7,B   3,B   5)     53.31 -0.000492    0.32     53.64   
   158. D(B   9,B   7,B   3,B   5)     21.86 -0.000696    2.85     24.71   
   159. D(B   3,B   7,B   0,B   9)   -124.47  0.002895   -0.71   -125.18   
   160. D(B   3,B   7,B   0,B  10)   -123.85  0.003106   -0.91   -124.76   
   161. D(B   3,B   7,B   0,B   8)    -31.48  0.003378   -1.08    -32.56   
   162. D(B   0,B   7,B   5,B   1)    -99.60 -0.003742    2.03    -97.57   
   163. D(B   5,B   7,B   0,B   8)     34.30  0.000131   -1.11     33.19   
   164. D(B   5,B   7,B   0,B   9)    -58.69 -0.000352   -0.75    -59.43   
   165. D(B   3,B   7,B   5,B   6)     23.14 -0.002875    1.35     24.49   
   166. D(B   5,B   7,B   0,B  10)    -58.07 -0.000141   -0.94    -59.01   
   167. D(B   3,B   7,B   5,B   1)      6.59 -0.002131    1.54      8.13   
   168. D(B   0,B   7,B   5,B   2)    114.81 -0.002547    1.31    116.11   
   169. D(B   0,B   7,B   5,B  11)     89.44 -0.003287    0.83     90.27   
   170. D(B   0,B   7,B   5,B   9)     44.79 -0.000929   -0.16     44.63   
   171. D(B   0,B   7,B   5,B   3)   -106.19 -0.001611    0.49   -105.70   
   172. D(B   3,B   7,B   5,B   4)     59.48 -0.000880    1.08     60.56   
   173. D(B   0,B   7,B   5,B   6)    -83.04 -0.004486    1.84    -81.21   
   174. D(B   0,B   7,B   5,B   4)    -46.71 -0.002491    1.57    -45.14   
   175. D(B  10,B   8,B   6,B   5)      0.19 -0.001686    0.01      0.20   
   176. D(B  10,B   8,B   6,B   4)   -144.78 -0.001123   -1.55   -146.33   
   177. D(B  10,B   8,B   6,B   1)     22.75 -0.001744   -0.32     22.43   
   178. D(B   0,B   8,B   6,B   4)    170.95  0.001477   -1.36    169.59   
   179. D(B   0,B   8,B   6,B   1)    -21.52  0.000857   -0.14    -21.65   
   180. D(B  10,B   8,B   4,B   2)    -26.06  0.000389    1.05    -25.02   
   181. D(B  10,B   8,B   4,B   5)     14.81  0.001299   -0.15     14.66   
   182. D(B  10,B   8,B   4,B   6)     43.75  0.001315   -1.71     42.04   
   183. D(B   0,B   8,B   4,B   2)   -125.86 -0.000440    0.20   -125.66   
   184. D(B   0,B   8,B   4,B   5)    -84.99  0.000470   -1.42    -86.41   
   185. D(B   0,B   8,B   4,B   6)    -56.05  0.000486   -2.98    -59.03   
   186. D(B   6,B   8,B   0,B  10)     55.69  0.000219   -1.45     54.24   
   187. D(B   4,B   8,B   0,B   9)    102.28  0.000782    0.90    103.17   
   188. D(B   0,B   8,B   6,B   5)    -44.07  0.000915    0.19    -43.88   
   189. D(B   4,B   8,B   0,B   7)     69.77 -0.000534    1.93     71.70   
   190. D(B   4,B   8,B   0,B  10)    103.47  0.001213   -0.17    103.30   
   191. D(B  10,B   8,B   0,B   9)     -1.19 -0.000431    1.07     -0.12   
   192. D(B  10,B   8,B   0,B   7)    -33.70 -0.001747    1.68    -32.02   
   193. D(B   5,B   9,B   7,B   3)    -29.69  0.001744   -2.67    -32.36   
   194. D(B   5,B   9,B   7,B   0)    -92.12 -0.000459    0.06    -92.06   
   195. D(B   0,B   9,B   7,B   3)     62.42  0.002204   -2.73     59.69   
   196. D(B   0,B   9,B   7,B   5)     92.12  0.000459   -0.06     92.06   
   197. D(B  10,B   9,B   7,B   0)     -0.34 -0.000079   -0.01     -0.35   
   198. D(B  10,B   9,B   7,B   5)     91.78  0.000381   -0.07     91.71   
   199. D(B   7,B   9,B   5,B   3)     33.98 -0.001064    0.66     34.64   
   200. D(B   7,B   9,B   5,B   4)    133.06  0.000557    0.40    133.46   
   201. D(B   7,B   9,B   5,B   1)    114.45 -0.003206    1.50    115.95   
   202. D(B  10,B   9,B   5,B   2)    124.23  0.000173    0.55    124.78   
   203. D(B  10,B   9,B   5,B  11)    135.10 -0.000300    0.77    135.86   
   204. D(B  10,B   9,B   5,B   3)    -70.10 -0.000038    0.14    -69.95   
   205. D(B  10,B   9,B   5,B   6)     30.09  0.000939    0.17     30.27   
   206. D(B  10,B   9,B   5,B   4)     28.99  0.001582   -0.12     28.87   
   207. D(B  10,B   9,B   5,B   1)     10.37 -0.002181    0.98     11.35   
   208. D(B   7,B   9,B   5,B   6)    134.17 -0.000086    0.69    134.86   
   209. D(B  10,B   9,B   5,B   7)   -104.08  0.001025   -0.52   -104.59   
   210. D(B   5,B   9,B   0,B   7)     40.50 -0.000875   -0.36     40.14   
   211. D(B   5,B   9,B   0,B  10)   -122.80 -0.000435    0.32   -122.48   
   212. D(B  10,B   9,B   7,B   3)     62.08  0.002125   -2.74     59.35   
   213. D(B   5,B   9,B   0,B   8)    -35.08 -0.000528   -0.19    -35.27   
   214. D(B   7,B   9,B   0,B  10)   -163.30  0.000439    0.68   -162.61   
   215. D(B   7,B   9,B   0,B   8)    -75.58  0.000347    0.17    -75.41   
   216. D(B  10,B   9,B   0,B   7)    163.30 -0.000439   -0.68    162.61   
   217. D(B  10,B   9,B   0,B   8)     87.71 -0.000092   -0.51     87.20   
   218. D(B   0,B  10,B   9,B   5)     57.52 -0.000372    0.49     58.01   
   219. D(B   0,B  10,B   9,B   7)     16.84  0.000466    0.73     17.57   
   220. D(B   9,B  10,B   8,B   6)     19.79  0.001642   -0.00     19.79   
   221. D(B   9,B  10,B   8,B   4)      3.20 -0.000742    0.03      3.23   
   222. D(B   9,B  10,B   8,B   0)    177.33 -0.000652    0.85    178.18   
   223. D(B   0,B  10,B   8,B   6)   -157.54  0.002294   -0.85   -158.40   
   224. D(B   0,B  10,B   8,B   4)   -174.13 -0.000090   -0.83   -174.96   
   225. D(B   9,B  10,B   0,B   7)    -16.18 -0.000269   -0.39    -16.57   
   226. D(B   9,B  10,B   0,B   8)    -91.92  0.000011   -0.34    -92.26   
   227. D(B   8,B  10,B   0,B   9)     91.92 -0.000011    0.34     92.26   
   228. D(B   0,B  10,B   9,B  11)    138.40  0.000225   -1.81    136.59   
   229. D(B   8,B  10,B   0,B   7)     75.75 -0.000280   -0.05     75.69   
   230. D(B   8,B  10,B   9,B   5)    -32.90 -0.000155    0.01    -32.89   
   231. D(B   8,B  10,B   9,B   0)    -90.42  0.000217   -0.90    -91.32   
   232. D(B   8,B  10,B   9,B   7)    -73.59  0.000684    0.25    -73.33   
   233. D(B   5,B  11,B   9,B   7)     31.78 -0.001048    0.55     32.32   
   234. D(B   5,B  11,B   9,B  10)    -97.19 -0.000454   -0.31    -97.50   
   235. D(B   2,B  11,B   9,B   5)    104.80 -0.000722    2.40    107.20   
   236. D(B   2,B  11,B   9,B   0)      8.69 -0.000955    2.07     10.76   
   237. D(B   2,B  11,B   9,B   7)    136.58 -0.001770    2.95    139.52   
   238. D(B   9,B  11,B   5,B   4)     76.31  0.001631   -1.60     74.71   
   239. D(B   9,B  11,B   5,B   1)    121.83  0.003662   -1.59    120.23   
   240. D(B   9,B  11,B   5,B   7)    -72.89  0.001751   -0.90    -73.78   
   241. D(B   2,B  11,B   5,B   9)   -155.53 -0.001754    0.06   -155.47   
   242. D(B   2,B  11,B   5,B   3)     90.02  0.003148   -1.67     88.35   
   243. D(B   2,B  11,B   5,B   6)    -55.37  0.000856   -1.54    -56.91   
   244. D(B   2,B  11,B   9,B  10)      7.61 -0.001176    2.09      9.70   
   245. D(B   2,B  11,B   5,B   4)    -79.22 -0.000123   -1.54    -80.76   
   246. D(B   2,B  11,B   5,B   1)    -33.70  0.001908   -1.53    -35.23   
   247. D(B   2,B  11,B   5,B   7)    131.59 -0.000003   -0.84    130.75   
   248. D(B   5,B  11,B   2,B   4)     51.99  0.000207    1.51     53.50   
   249. D(B   9,B  11,B   2,B   4)    -41.19 -0.000523   -0.99    -42.18   
   250. D(B   9,B  11,B   2,B   5)    -93.18 -0.000730   -2.50    -95.68   
    ----------------------------------------------------------------------------

Geometry step timings:
Preparation and reading OPT file:      0.000 s ( 0.203 %)
Internal coordinates            :      0.000 s ( 0.363 %)
B/P matrices and projection     :      0.006 s (27.511 %)
Hessian update/contruction      :      0.004 s (20.409 %)
Making the step                 :      0.008 s (38.347 %)
Converting the step to Cartesian:      0.001 s ( 2.767 %)
Storing new data                :      0.000 s ( 0.431 %)
Checking convergence            :      0.000 s ( 0.634 %)
Final printing                  :      0.002 s ( 9.327 %)
Total time                      :      0.021 s

Time for energy+gradient        :      0.077 s
Time for complete geometry iter :      0.099 s




    ----------------------------------------------------------------------------
                                  WARNING !!!
       The optimization did not converge but reached the maximum number of
       optimization cycles.
       Please check your results very carefully.
    ----------------------------------------------------------------------------



--------------------------------
SUGGESTED CITATIONS FOR THIS RUN
--------------------------------

Below you find a list of papers that are relevant to this ORCA run
We neither can nor want to force you to cite these papers, but we appreciate if you do
You receive ORCA, which is the product of decades of hard work by many enthusiastic individuals, for free
The only thing we kindly ask in return is that you cite our papers,
We deeply appreciate it, if you show your appreciation for ORCA by not just citing the generic ORCA reference.

Please note that relegating all ORCA citations to the supporting information does *not* help us.
SI sections are not indexed - citations you put there will not count into any citation statistics
But we need these citations in order to attract the funding resources that allow us to do what we are doing

Therefore, if you are a happy ORCA user, please consider citing a few of the papers listed below in the main body of your paper

In addition to the list printed below, the program has created the file random_d1.90_005_m3.bibtex that contains the list in bibtex format
You can import this file easily into all common literature databanks and citation aid programs

It goes without saying that in many instances, there are alternative algorithms to achieve similar
results as the ones you have gotten from ORCA. It is, of course, also the case that in some instances
ORCA just re-implements algorithms worked out by others. We are fully aware of that and we are also
fully appreciative of our colleagues work. Hence this citation list should not be read as indicating
that the listed papers, which are focused on our own work, are the only ones worth citing. It simply
meant to make it easier for users to cite ORCA specific papers. It is not a substitute for doing your
own literature research and citing the relevant literature in a scientifically appropriate manner.

List of essential papers. We consider these as the minimum necessary citations

  1. Bannwarth, C.; Ehlert, S.; Grimme, S.
     GFN2-xTB—An Accurate and Broadly Parametrized Self-Consistent Tight-Binding Quantum Chemical Method with Multipole Electrostatics and Density-Dependent Dispersion Contributions
     J. Chem. Theory Comput. 2019 15(3), 1652-1671
     doi.org/10.1021/acs.jctc.8b01176
  2. Neese, F.
     Software update: the ORCA program system, version 6.0
     WIRES Comput. Molec. Sci. 2025 15(1), e70019
     doi.org/10.1002/wcms.70019

List of papers to cite with high priority. The work reported in these papers was absolutely
necessary for this run to complete.
Our perspective: the developers of density functionals and basis sets usually get cited in chemistry papers
Good! But without the algorithms to do something with them, the functionals or basis sets would not do anything.
Hence, in our opinion, the algorithm design and method developments papers are equally worthy of getting cited

  1. Bannwarth, C.; Caldeweyher, E.; Ehlert, S.; Hansen, A.; Pracht, P.; Seibert, J.; Spicher, S.; Grimme, S.
     Extended tight-binding quantum chemistry methods
     WIRES Comput. Molec. Sci. 2020 11(2), e1493
     doi.org/10.1002/wcms.1493

List of suggested additional citations. These are papers that are important in the 'surrounding' of 
of this run, or papers that preceded the highly important papers. If you like your results we are grateful for a citation.

  1. Neese, F.
     The ORCA program system
     WIRES Comput. Molec. Sci. 2012 2(1), 73-78
     doi.org/10.1002/wcms.81
  2. Neese, F.
     Software update: the ORCA program system, version 4.0
     WIRES Comput. Molec. Sci. 2018 8(1), 1-6
     doi.org/10.1002/wcms.1327
  3. Neese, F.; Wennmohs, F.; Becker, U.; Riplinger, C.
     The ORCA quantum chemistry program package
     J. Chem. Phys. 2020 152(22), 224108
     doi.org/10.1063/5.0004608
  4. Neese, F.
     Software update: The ORCA program system—Version 5.0
     WIRES Comput. Molec. Sci. 2022 12(1), e1606
     doi.org/10.1002/wcms.1606

List of optional additional citations

  1. Neese, F.
     Approximate second-order SCF convergence for spin unrestricted wavefunctions
     Chem. Phys. Lett. 2000 325(1-3), 93-98
     doi.org/10.1016/s0009-2614(00)00662-x

Timings for individual modules:

Sum of individual times          ...        4.555 sec (=   0.076 min)
Geometry relaxation              ...        1.292 sec (=   0.022 min)  28.4 %
XTB module                       ...        3.263 sec (=   0.054 min)  71.6 %
                             ****ORCA TERMINATED NORMALLY****
TOTAL RUN TIME: 0 days 0 hours 0 minutes 5 seconds 48 msec
