
                                 *****************
                                 * O   R   C   A *
                                 *****************

                                            #,                                       
                                            ###                                      
                                            ####                                     
                                            #####                                    
                                            ######                                   
                                           ########,                                 
                                     ,,################,,,,,                         
                               ,,#################################,,                 
                          ,,##########################################,,             
                       ,#########################################, ''#####,          
                    ,#############################################,,   '####,        
                  ,##################################################,,,,####,       
                ,###########''''           ''''###############################       
              ,#####''   ,,,,##########,,,,          '''####'''          '####       
            ,##' ,,,,###########################,,,                        '##       
           ' ,,###''''                  '''############,,,                           
         ,,##''                                '''############,,,,        ,,,,,,###''
      ,#''                                            '''#######################'''  
     '                                                          ''''####''''         
             ,#######,   #######,   ,#######,      ##                                
            ,#'     '#,  ##    ##  ,#'     '#,    #''#        ,####,    ,#,          
            ##       ##  ##   ,#'  ##            #'  '#       #'       ,# #          
            ##       ##  #######   ##           ,######,      #####,      #          
            '#,     ,#'  ##    ##  '#,     ,#' ,#      #,     #,   #      #          
             '#######'   ##     ##  '#######'  #'      '#     '####' #    #          



                #########################################################
                #                        -***-                          #
                #          Department of theory and spectroscopy        #
                #                                                       #
                #                      Frank Neese                      #
                #                                                       #
                #     Directorship, Architecture, Infrastructure        #
                #                    SHARK, DRIVERS                     #
                #        Core code/Algorithms in most modules           #
                #                                                       #
                #        Max Planck Institute fuer Kohlenforschung      #
                #                Kaiser Wilhelm Platz 1                 #
                #                 D-45470 Muelheim/Ruhr                 #
                #                      Germany                          #
                #                                                       #
                #                  All rights reserved                  #
                #                        -***-                          #
                #########################################################


                         Program Version 6.1.1  -  RELEASE   -
                                (GIT: $487d211c$)
                          ($2025-11-21 10:33:24 +0100$)
                                                                         
                                  - NO-DMRG VERSION -                    
                                                                         


 With contributions from (in alphabetic order):
[Max-Planck-Institut fuer Kohlenforschung]                               
  Daniel Aravena         : Magnetic Suceptibility                        
  Michael Atanasov       : Ab Initio Ligand Field Theory (pilot matlab implementation)
  Alexander A. Auer      : GIAO ZORA, VPT2 properties, NMR spectrum      
  Ute Becker             : All parallelization in ORCA, NUMFREQ, NUMCALC 
  Giovanni Bistoni       : ED, misc. LED, open-shell LED, HFLD           
  Dmytro Bykov           : pre 5.0 version of the SCF Hessian            
  Marcos Casanova-Páez   : Triplet and SCS-CIS(D). UHF-(DLPNO)-IP/EA/STEOM-CCSD. UHF-CVS-IP/STEOM-CCSD   
  Vijay G. Chilkuri      : MRCI spin determinant printing, contributions to CSF-ICE 
  Pauline Colinet        : FMM embedding                                 
  Dipayan Datta          : RHF DLPNO-CCSD density                        
  Achintya Kumar Dutta   : EOM-CC, STEOM-CC                              
  Nicolas Foglia         : Exact transition moments, OPA infrastructure, MCD improvements    
  Dmitry Ganyushin       : Spin-Orbit,Spin-Spin,Magnetic field MRCI      
  Miquel Garcia-Rates    : C-PCM and meta-GGA Hessian, CCSD/C-PCM, Gaussian charge scheme 
  Tiago L. C. Gouveia    : GS-ROHF, GS-ROCIS                             
  Yang Guo               : DLPNO-NEVPT2, F12-NEVPT2, CIM, IAO-localization        
  Andreas Hansen         : Spin unrestricted coupled pair/coupled cluster methods 
  Ingolf Harden          : AUTO-CI MPn and infrastructure                
  Benjamin Helmich-Paris : MC-RPA, TRAH-(SCF,CASSCF), AVAS, COSX integrals, SCF dyn. polar., MC-PDFT, srDFT 
  Lee Huntington         : MR-EOM, pCC                                   
  Robert Izsak           : Overlap fitted RIJCOSX, COSX-SCS-MP3, EOM     
  Riya Kayal             : Wick's Theorem for AUTO-CI, AUTO-CI UHF-CCSDT 
  Emily Kempfer          : AUTO-CI RHF CISDT and CCSDT, approximate NEVPT4
  Christian Kollmar      : KDIIS, OOCD, Brueckner-CCSD(T), CCSD density, CASPT2, CASPT2-K, improved NEVPT2 
  Axel Koslowski         : Symmetry handling                             
  Simone Kossmann        : meta-GGA functionals, TD-DFT gradient, OOMP2, (MP2 Hessian; deprecated post 5.0) 
  Lucas Lang             : DCDCAS, Hyperfine gauge corrections, ICE-SOC+SSC
  Marvin Lechner         : AUTO-CI (C++ implementation), FIC-MRCC        
  Spencer Leger          : CASSCF response                               
  Dagmar Lenk            : GEPOL surface, SMD, ORCA-2-JSON               
  Dimitrios Liakos       : Extrapolation schemes; Compound Job, Property file
  Dimitrios Manganas     : Further ROCIS development; embedding schemes. LFT, Crystal Embedding 
  Dimitrios Pantazis     : SARC Basis sets                               
  Anastasios Papadopoulos: AUTO-CI, single reference methods and gradients 
  Taras Petrenko         : pre 6.0 DFT Hessian and TD-DFT gradient,  ECA, NRVS 
  Petra Pikulova         : Analytic Raman intensities                    
  Peter Pinski           : DLPNO-MP2, DLPNO-MP2 Gradient                 
  Shashank Vittal Rao    : ES-AILFT, MagRelax                            
  Christoph Reimann      : Effective Core Potentials                     
  Marius Retegan         : Local ZFS, SOC                                
  Christoph Riplinger    : Optimizer, TS searches, QM/MM, DLPNO-CCSD(T), (RO)-DLPNO pert. Triples 
  Michael Roemelt        : Original ROCIS implementation, recursive CI coupling coefficients
  Masaaki Saitow         : Open-shell DLPNO-CCSD energy and density      
  Barbara Sandhoefer     : DKH picture change effects                    
  Yorick L. A. Schmerwitz: GMF and freeze-and-release deltaSCF, NEB S-IDPP initial path                    
  Kantharuban Sivalingam : CASSCF convergence/infrastructure, NEVPT2, NEVPT3, NEVPT4(SD), FIC-MRCI and CEPA variants
  Bernardo de Souza      : ESD, SOC TD-DFT                               
  Georgi L. Stoychev     : AutoAux, RI-MP2 NMR, DLPNO-MP2 response, X2C  
  Van Anh Tran           : RI-MP2 g-tensors                              
  Willem Van den Heuvel  : Paramagnetic NMR                              
  Zikuan Wang            : NOTCH, Electric field optimization            
  Frank Wennmohs         : Technical directorship and infrastructure     
  Hang Xu                : AUTO-CI-Response properties                   
                                                                         
[FACCTs GmbH]                                                            
  Markus Bursch, Nicolas Foglia, Miquel Garcia-Rates, Ingolf Harden, Hagen Neugebauer, Anastasios Papadopoulos, 
  Christoph Riplinger, Bernardo de Souza, Georgi L. Stoychev                                                    
                                                                 
  APM, various basis sets, CI-OPT, improved COSX, DLPNO-Multilevel,           
  DOCKER, DRACO, updates on ESD, Fragmentator, GOAT, IRC, LR-CPCM, L-BFGS, MBIS, meta-GGA TD-DFT gradient, ML-optimized integration grids, 
  MM, NACMEs, nearIR, NEB, NEB-TS, NL-DFT gradient (VV10), 2- and 3-layer-ONIOM, interface openCOSMO-RS, QMMM,   
  Crystal-QMMM, RESP, rigid body optimization, SF, symmetry and pop. for TD-DFT, various functionals, SOLVATOR                                   
                                                                         
[Other institutions]                                                     
  V. Asgeirsson          : NEB                                           
  Christoph Bannwarth    : sTDA-DFT, sTD-DFT, PBEh-3c, B97-3c, D3        
  Giovanni Bistoni       : ETS/NOCV, ADLD/ADEX, COVALED                  
  Martin Brehm           : Molecular dynamics                            
  Ronald Cardenas        : ETS/NOCV                                      
  Martina Colucci        : COVALED                                       
  Sebastian Ehlert       : rSCAN, r2SCAN, r2SCAN-3c, D4, dhf basis sets  
  Marvin Friede          : D4 for Fr, Ra, Ac-Lr                          
  Lars Goerigk           : TD-DFT with DH, B97 family of functionals     
  Stefan Grimme          : VdW corrections, initial TS optimization, DFT functionals, gCP, sTDA/sTD-DF 
  Waldemar Hujo          : DFT-NL                                        
  H. Jonsson             : NEB                                           
  Holger Kruse           : gCP                                           
  Marcel Mueller         : wB97X-3c, vDZP basis set                      
  Hagen Neugebauer       : wr2SCAN, Native XTB                           
  Gianluca Regni         : ADLD/ADEX                                     
  Tobias Risthaus        : pre 6.0 range-separated hybrid DFT and stability analysis
  Lukas Wittmann         : regularized MP2, r2SCAN double-hybrids, wr2SCAN        
                                                                         
We gratefully acknowledge several colleagues who have allowed us to      
interface, adapt or use parts of their codes:                            
  Ed Valeev, F. Pavosevic, A. Kumar             : LibInt (2-el integral package), F12 methods 
  Garnet Chan, S. Sharma, J. Yang, R. Olivares  : DMRG                   
  Ulf Ekstrom                                   : XCFun DFT Library      
  Mihaly Kallay                                 : mrcc  (arbitrary order and MRCC methods)
  Frank Weinhold                                : gennbo (NPA and NBO analysis)           
  Simon Mueller                                 : openCOSMO-RS                            
  Christopher J. Cramer and Donald G. Truhlar   : smd solvation model                     
  S Lehtola, MJT Oliveira, MAL Marques          : LibXC Library                           
  Liviu Ungur et al                             : ANISO software                          


 Your calculation uses the libint2 library for the computation of 2-el integrals
 For citations please refer to: http://libint.valeyev.net

 Your ORCA version has been built with support for libXC version: 7.0.0
 For citations please refer to: https://libxc.gitlab.io

 This ORCA versions uses:
   CBLAS   interface :  Fast vector & matrix operations
   LAPACKE interface :  Fast linear algebra routines
   SCALAPACK package :  Parallel linear algebra routines
   Shared memory     :  Shared parallel matrices
   BLAS/LAPACK       :  OpenBLAS 0.3.29  USE64BITINT DYNAMIC_ARCH NO_AFFINITY Zen SINGLE_THREADED
        Core in use  :  Zen
   Copyright (c) 2011-2014, The OpenBLAS Project


  ***********************************
  * Starting time: Fri Apr 17 12:14:31 2026
  * Host name:     vmi3233575
  * Process ID:    336136
  * Working dir.:  /root/orca_b12_vps_pack/jobs/01_xtb/mult_3
  ***********************************

NOTE: MaxCore=500 MB was set to SCF,MP2,MDCI,CIPSI,MRCI,RASCI and CIS
      => If you want to overwrite this, your respective input block should be placed after the MaxCore statement


***************************************
The coordinates will be read from file: ../../../starts/random_d1.50_004.xyz
***************************************


Your calculation utilizes the semiempirical GFN2-xTB method
Please cite in your paper:
Bannwarth, C.; Ehlert S.; Grimme, S. J. Chem. Theory Comput. 2019, 15, 1652.
   

================================================================================

================================================================================
                                        WARNINGS
                       Please study these warnings very carefully!
================================================================================


WARNING: Geometry Optimization
  ===> : Switching off AutoStart
         For restart on a previous wavefunction, please use MOREAD

WARNING: Found dipole moment calculation with XTB calculation
  ===> : Switching off dipole moment calculation

Environment variable XTBEXE for xtb has been set!

================================================================================
                                       INPUT FILE
================================================================================
NAME = random_d1.50_004_m3.inp
|  1> ! GFN2-xTB TightSCF TightOpt
|  2> 
|  3> %pal
|  4>   nprocs 1
|  5> end
|  6> 
|  7> %maxcore 500
|  8> 
|  9> * xyzfile 0 3 ../../../starts/random_d1.50_004.xyz
| 10> 
| 11>                          ****END OF INPUT****
================================================================================

                       *****************************
                       * Geometry Optimization Run *
                       *****************************

Geometry optimization settings:
Update method            Update   .... BFGS
Choice of coordinates    CoordSys .... (2022) Redundant Internals
Initial Hessian          InHess   .... Almloef's Model
Max. no of cycles        MaxIter  .... 50

Convergence Tolerances:
Energy Change            TolE     ....  1.0000e-06 Eh
Max. Gradient            TolMAXG  ....  1.0000e-04 Eh/bohr
RMS Gradient             TolRMSG  ....  3.0000e-05 Eh/bohr
Max. Displacement        TolMAXD  ....  1.0000e-03 bohr
RMS Displacement         TolRMSD  ....  6.0000e-04 bohr
Strict Convergence                .... False

------------------------------------------------------------------------------
                        ORCA OPTIMIZATION COORDINATE SETUP
------------------------------------------------------------------------------

The optimization will be done in redundant internal coordinates (2022)
Making redundant internal coordinates   ...  (2022 redundants) done
Evaluating the initial hessian          ...  (Almloef) done
Evaluating the coordinates              ...  done
Calculating the B-matrix                .... done
Calculating the G-matrix                .... done
The number of degrees of freedom        ....  145

    -----------------------------------------------------------------
                    Redundant Internal Coordinates


    -----------------------------------------------------------------
         Definition                    Initial Value    Approx d2E/dq
    -----------------------------------------------------------------
      1. B(B   2,B   1)                  1.3139         1.108634   
      2. B(B   3,B   1)                  1.8219         0.171520   
      3. B(B   4,B   1)                  2.4593         0.016497   
      4. B(B   4,B   3)                  2.4005         0.020472   
      5. B(B   4,B   2)                  2.4164         0.019313   
      6. B(B   7,B   0)                  1.1717         1.869398   
      7. B(B   7,B   2)                  1.5982         0.390135   
      8. B(B   7,B   5)                  2.4528         0.016897   
      9. B(B   8,B   7)                  1.7064         0.262127   
     10. B(B   9,B   6)                  1.7054         0.263087   
     11. B(B   9,B   2)                  1.2834         1.240239   
     12. B(B   9,B   4)                  2.4844         0.015040   
     13. B(B  10,B   9)                  2.0390         0.077265   
     14. B(B  10,B   2)                  1.5688         0.434600   
     15. B(B  10,B   1)                  1.3324         1.035935   
     16. B(B  11,B   4)                  2.1156         0.058306   
     17. B(B  11,B   8)                  1.9437         0.109635   
     18. B(B  11,B   5)                  2.1196         0.057460   
     19. A(B   4,B   1,B  10)          116.4727         0.266975   
     20. A(B   3,B   1,B   4)           66.2792         0.207464   
     21. A(B   2,B   1,B  10)           72.7140         0.550279   
     22. A(B   2,B   1,B   3)          114.0770         0.396037   
     23. A(B   3,B   1,B  10)           82.2885         0.391360   
     24. A(B   2,B   1,B   4)           72.5728         0.269728   
     25. A(B   1,B   2,B   4)           76.1764         0.276290   
     26. A(B   7,B   2,B  10)          144.1263         0.388171   
     27. A(B   4,B   2,B  10)          108.8089         0.240518   
     28. A(B   1,B   2,B  10)           54.1860         0.467948   
     29. A(B   4,B   2,B   7)          106.9298         0.236861   
     30. A(B   1,B   2,B   9)          124.3982         0.569460   
     31. A(B   4,B   2,B   9)           77.7734         0.281106   
     32. A(B   1,B   2,B   7)          134.6085         0.458803   
     33. A(B   7,B   2,B   9)           99.7709         0.468312   
     34. A(B   9,B   2,B  10)           90.7001         0.477693   
     35. A(B   1,B   3,B   4)           69.7065         0.213396   
     36. A(B   2,B   4,B   3)           66.6255         0.164880   
     37. A(B   2,B   4,B  11)           71.0462         0.185164   
     38. A(B   1,B   4,B   2)           31.2509         0.161262   
     39. A(B   2,B   4,B   9)           30.3210         0.159766   
     40. A(B   9,B   4,B  11)           69.5258         0.179873   
     41. A(B   1,B   4,B   9)           55.3831         0.157286   
     42. A(B   3,B   4,B   9)           71.6264         0.160706   
     43. A(B   3,B   4,B  11)          137.3929         0.186441   
     44. A(B   1,B   4,B   3)           44.0144         0.162222   
     45. A(B   1,B   4,B  11)           97.9360         0.181794   
     46. A(B   7,B   5,B  11)           59.6020         0.181991   
     47. A(B   0,B   7,B   2)          108.4136         0.505226   
     48. A(B   5,B   7,B   8)           92.8347         0.220108   
     49. A(B   2,B   7,B   5)          106.7808         0.232456   
     50. A(B   0,B   7,B   5)          137.6025         0.293521   
     51. A(B   2,B   7,B   8)          108.5948         0.355821   
     52. A(B   0,B   7,B   8)           97.6357         0.469400   
     53. A(B   7,B   8,B  11)           77.4401         0.289193   
     54. A(B   2,B   9,B  10)           50.2962         0.351923   
     55. A(B   4,B   9,B  10)           92.3458         0.185853   
     56. A(B   4,B   9,B   6)          103.6568         0.216805   
     57. A(B   2,B   9,B   4)           71.9056         0.270537   
     58. A(B   2,B   9,B   6)          172.2279         0.435950   
     59. A(B   6,B   9,B  10)          137.1857         0.274103   
     60. A(B   1,B  10,B   2)           53.1000         0.462175   
     61. A(B   2,B  10,B   9)           39.0037         0.296373   
     62. A(B   1,B  10,B   9)           83.0865         0.341427   
     63. A(B   4,B  11,B   5)          129.8052         0.212080   
     64. A(B   5,B  11,B   8)           97.4703         0.230990   
     65. A(B   4,B  11,B   8)          103.2443         0.231461   
     66. D(B   7,B   2,B   1,B  10)   -133.7721         0.077798   
     67. D(B   7,B   2,B   1,B   4)    100.2832         0.077798   
     68. D(B  10,B   2,B   1,B   3)    -72.9635         0.077798   
     69. D(B   7,B   2,B   1,B   3)    153.2643         0.077798   
     70. D(B   9,B   2,B   1,B   3)    -11.3744         0.077798   
     71. D(B   9,B   2,B   1,B  10)     61.5892         0.077798   
     72. D(B   9,B   2,B   1,B   4)    -64.3555         0.077798   
     73. D(B   4,B   3,B   1,B   2)    -56.3135         0.010000   
     74. D(B   4,B   3,B   1,B  10)   -123.4253         0.010000   
     75. D(B   2,B   4,B   1,B   3)   -127.2274         0.010000   
     76. D(B  11,B   4,B   1,B   3)   -157.7012         0.010000   
     77. D(B   3,B   4,B   2,B   9)     93.3721         0.010000   
     78. D(B   3,B   4,B   1,B  10)     67.5081         0.010000   
     79. D(B   3,B   4,B   2,B  10)      6.8462         0.010000   
     80. D(B   3,B   4,B   1,B   2)    127.2274         0.010000   
     81. D(B  11,B   4,B   3,B   1)     33.7194         0.010000   
     82. D(B  11,B   4,B   2,B  10)   -168.1673         0.010000   
     83. D(B  11,B   4,B   2,B   9)    -81.6414         0.010000   
     84. D(B   9,B   4,B   3,B   1)     58.8202         0.010000   
     85. D(B   3,B   4,B   2,B   1)    -37.0652         0.010000   
     86. D(B   3,B   4,B   2,B   7)   -169.9924         0.010000   
     87. D(B   2,B   4,B   3,B   1)     26.7444         0.010000   
     88. D(B  11,B   4,B   2,B   7)     14.9942         0.010000   
     89. D(B  11,B   4,B   2,B   1)    147.9213         0.010000   
     90. D(B  11,B   4,B   1,B   2)    -30.4738         0.010000   
     91. D(B   2,B   4,B   1,B  10)    -59.7193         0.010000   
     92. D(B  11,B   4,B   1,B  10)    -90.1931         0.010000   
     93. D(B   0,B   7,B   2,B  10)    -32.1926         0.010000   
     94. D(B   0,B   7,B   2,B   9)   -137.2201         0.010000   
     95. D(B   0,B   7,B   2,B   4)    142.6964         0.010000   
     96. D(B   0,B   7,B   2,B   1)     55.5946         0.010000   
     97. D(B   8,B   7,B   5,B  11)    -42.2314         0.010000   
     98. D(B   2,B   7,B   5,B  11)     68.1579         0.010000   
     99. D(B   8,B   7,B   2,B  10)   -137.2486         0.010000   
    100. D(B   8,B   7,B   2,B   9)    117.7239         0.010000   
    101. D(B   8,B   7,B   2,B   1)    -49.4614         0.010000   
    102. D(B   0,B   7,B   5,B  11)   -146.7997         0.010000   
    103. D(B  11,B   8,B   7,B   5)     40.3671         0.010000   
    104. D(B  11,B   8,B   7,B   2)    -68.3953         0.010000   
    105. D(B  11,B   8,B   7,B   0)    179.1869         0.010000   
    106. D(B   6,B   9,B   4,B   1)    157.9640         0.010000   
    107. D(B   6,B   9,B   4,B   2)   -173.3639         0.010000   
    108. D(B   6,B   9,B   4,B   3)    111.7156         0.010000   
    109. D(B   6,B   9,B   4,B  11)    -86.1353         0.010000   
    110. D(B   2,B   9,B   4,B   1)    -28.6721         0.010000   
    111. D(B   2,B   9,B   4,B   3)    -74.9204         0.010000   
    112. D(B   2,B   9,B   4,B  11)     87.2286         0.010000   
    113. D(B  10,B   9,B   2,B   4)   -109.1033         0.100307   
    114. D(B  10,B   9,B   2,B   7)    145.5281         0.100307   
    115. D(B  10,B   9,B   2,B   1)    -45.5045         0.100307   
    116. D(B   6,B   9,B   2,B   4)     56.1378         0.100307   
    117. D(B   6,B   9,B   2,B  10)    165.2411         0.100307   
    118. D(B   6,B   9,B   2,B   7)    -49.2308         0.100307   
    119. D(B   6,B   9,B   2,B   1)    119.7366         0.100307   
    120. D(B   1,B  10,B   2,B   4)    -56.1485         0.010394   
    121. D(B   1,B  10,B   2,B   9)   -133.4641         0.010394   
    122. D(B   1,B  10,B   2,B   7)    118.6860         0.010394   
    123. D(B   9,B  10,B   1,B   4)     32.2473         0.058108   
    124. D(B   9,B  10,B   1,B   3)     90.8522         0.058108   
    125. D(B   9,B  10,B   1,B   2)    -27.3965         0.058108   
    126. D(B   2,B  10,B   1,B   4)     59.6438         0.058108   
    127. D(B   9,B  10,B   2,B   1)    133.4641         0.010394   
    128. D(B   2,B  10,B   1,B   3)    118.2488         0.058108   
    129. D(B   2,B  10,B   9,B   4)    -64.0208         0.010000   
    130. D(B   2,B  10,B   9,B   6)   -177.0944         0.010000   
    131. D(B   1,B  10,B   9,B   4)    -28.2414         0.010000   
    132. D(B   1,B  10,B   9,B   6)   -141.3150         0.010000   
    133. D(B   1,B  10,B   9,B   2)     35.7794         0.010000   
    134. D(B   9,B  10,B   2,B   4)     77.3157         0.010394   
    135. D(B   9,B  10,B   2,B   7)   -107.8499         0.010394   
    136. D(B   5,B  11,B   8,B   7)    -49.0238         0.010000   
    137. D(B   4,B  11,B   5,B   7)    -77.7380         0.010000   
    138. D(B   8,B  11,B   5,B   7)     36.4698         0.010000   
    139. D(B   5,B  11,B   4,B   2)     55.0448         0.010000   
    140. D(B   5,B  11,B   4,B   3)     48.2761         0.010000   
    141. D(B   8,B  11,B   4,B   9)    -88.8898         0.010000   
    142. D(B   8,B  11,B   4,B   1)    -40.5187         0.010000   
    143. D(B   4,B  11,B   8,B   7)     84.9368         0.010000   
    144. D(B   8,B  11,B   4,B   2)    -56.6705         0.010000   
    145. D(B   8,B  11,B   4,B   3)    -63.4392         0.010000   
    -----------------------------------------------------------------

Number of atoms                         .... 12
Number of degrees of freedom            .... 145


         *************************************************************
         *                GEOMETRY OPTIMIZATION CYCLE   1            *
         *************************************************************
---------------------------------
CARTESIAN COORDINATES (ANGSTROEM)
---------------------------------
  B    -1.211842   -2.079387   -0.351237
  B     1.427707   -0.909321    0.627140
  B     0.190112   -0.501667    0.458301
  B     2.550779    0.371895    1.272501
  B     1.504116    1.125301   -0.752188
  B    -2.326149    1.088873   -0.946110
  B    -0.935681    2.136406    1.274349
  B    -1.013163   -0.934359   -0.500411
  B    -0.431318   -1.012047   -2.102710
  B    -0.274637    0.608632    0.903572
  B     0.882763   -0.786708    1.836763
  B    -0.362686    0.892381   -1.719970

----------------------------
CARTESIAN COORDINATES (A.U.)
----------------------------
  NO LB    ZA    FRAG    MASS        X           Y           Z
   0 B   5.0000    0    10.810   -2.290049   -3.929472   -0.663742
   1 B   5.0000    0    10.810    2.697975   -1.718367    1.185123
   2 B   5.0000    0    10.810    0.359259   -0.948014    0.866064
   3 B   5.0000    0    10.810    4.820273    0.702780    2.404678
   4 B   5.0000    0    10.810    2.842366    2.126511   -1.421429
   5 B   5.0000    0    10.810   -4.395785    2.057673   -1.787889
   6 B   5.0000    0    10.810   -1.768180    4.037222    2.408170
   7 B   5.0000    0    10.810   -1.914601   -1.765682   -0.945639
   8 B   5.0000    0    10.810   -0.815072   -1.912491   -3.973546
   9 B   5.0000    0    10.810   -0.518990    1.150148    1.707503
  10 B   5.0000    0    10.810    1.668180   -1.486663    3.470980
  11 B   5.0000    0    10.810   -0.685377    1.686356   -3.250271

      -----------------------------------------------------------      
     |                   =====================                   |     
     |                           x T B                           |     
     |                   =====================                   |     
     |                         S. Grimme                         |     
     |          Mulliken Center for Theoretical Chemistry        |     
     |                    University of Bonn                     |     
      -----------------------------------------------------------      

   * xtb version 6.6.1 (unknown) compiled by 'builduser@buildhost' on 2023-08-07

   xtb is free software: you can redistribute it and/or modify it under
   the terms of the GNU Lesser General Public License as published by
   the Free Software Foundation, either version 3 of the License, or
   (at your option) any later version.
   
   xtb is distributed in the hope that it will be useful,
   but WITHOUT ANY WARRANTY; without even the implied warranty of
   MERCHANTABILITY or FITNESS FOR A PARTICULAR PURPOSE.  See the
   GNU Lesser General Public License for more details.
   
   Cite this work as:
   * C. Bannwarth, E. Caldeweyher, S. Ehlert, A. Hansen, P. Pracht,
     J. Seibert, S. Spicher, S. Grimme, WIREs Comput. Mol. Sci., 2020, 11,
     e01493. DOI: 10.1002/wcms.1493
   
   for GFN2-xTB:
   * C. Bannwarth, S. Ehlert and S. Grimme., J. Chem. Theory Comput., 2019,
     15, 1652-1671. DOI: 10.1021/acs.jctc.8b01176
   for GFN1-xTB:
   * S. Grimme, C. Bannwarth, P. Shushkov, J. Chem. Theory Comput., 2017,
     13, 1989-2009. DOI: 10.1021/acs.jctc.7b00118
   for GFN0-xTB:
   * P. Pracht, E. Caldeweyher, S. Ehlert, S. Grimme, ChemRxiv, 2019, preprint.
     DOI: 10.26434/chemrxiv.8326202.v1
   for GFN-FF:
   * S. Spicher and S. Grimme, Angew. Chem. Int. Ed., 2020, 59, 15665-15673.
     DOI: 10.1002/anie.202004239
   
   for ALPB and GBSA implicit solvation:
   * S. Ehlert, M. Stahn, S. Spicher, S. Grimme, J. Chem. Theory Comput.,
     2021, 17, 4250-4261. DOI: 10.1021/acs.jctc.1c00471
   
   for DFT-D4:
   * E. Caldeweyher, C. Bannwarth and S. Grimme, J. Chem. Phys., 2017,
     147, 034112. DOI: 10.1063/1.4993215
   * E. Caldeweyher, S. Ehlert, A. Hansen, H. Neugebauer, S. Spicher,
     C. Bannwarth and S. Grimme, J. Chem. Phys., 2019, 150, 154122.
     DOI: 10.1063/1.5090222
   * E. Caldeweyher, J.-M. Mewes, S. Ehlert and S. Grimme, Phys. Chem. Chem. Phys.
     2020, 22, 8499-8512. DOI: 10.1039/D0CP00502A
   
   for sTDA-xTB:
   * S. Grimme and C. Bannwarth, J. Chem. Phys., 2016, 145, 054103.
     DOI: 10.1063/1.4959605
   
   in the mass-spec context:
   * V. Asgeirsson, C. Bauer and S. Grimme, Chem. Sci., 2017, 8, 4879.
     DOI: 10.1039/c7sc00601b
   * J. Koopman and S. Grimme, ACS Omega 2019, 4, 12, 15120-15133.
     DOI: 10.1021/acsomega.9b02011
   
   for metadynamics refer to:
   * S. Grimme, J. Chem. Theory Comput., 2019, 155, 2847-2862
     DOI: 10.1021/acs.jctc.9b00143
   
   for SPH calculations refer to:
   * S. Spicher and S. Grimme, J. Chem. Theory Comput., 2021, 17, 1701-1714
     DOI: 10.1021/acs.jctc.0c01306
   
   with help from (in alphabetical order)
   P. Atkinson, C. Bannwarth, F. Bohle, G. Brandenburg, E. Caldeweyher
   M. Checinski, S. Dohm, S. Ehlert, S. Ehrlich, I. Gerasimov, C. Hölzer
   A. Katbashev, J. Koopman, C. Lavigne, S. Lehtola, F. März, M. Müller,
   F. Musil, H. Neugebauer, J. Pisarek, C. Plett, P. Pracht, F. Pultar,
   J. Seibert, P. Shushkov, S. Spicher, M. Stahn, M. Steiner, T. Strunk,
   J. Stückrath, T. Rose, and J. Unsleber
   
 * started run on 2026/04/17 at 12:14:31.327     

           -------------------------------------------------
          |                Calculation Setup                |
           -------------------------------------------------

          program call               : /usr/bin/xtb random_d1.50_004_m3_XTB.xyz --grad -c 0 -u 2 -P 1 --namespace random_d1.50_004_m3 --input random_d1.50_004_m3_XTB.input.tmp --acc 0.200000
          calculation namespace      : random_d1.50_004_m3
          coordinate file            : random_d1.50_004_m3_XTB.xyz
          omp threads                :                     1

   ID    Z sym.   atoms
    1    5 B      1-12

molecular fragmentation (1/2 indicates fragments):
111122111112
# atoms in fragment 1/2:     9     3
 fragment masses (1/2) :       97.30       32.43
CMA distance (Bohr)    :   4.005
constraining FC (au)   :  0.0500

           -------------------------------------------------
          |                 G F N 2 - x T B                 |
           -------------------------------------------------

        Reference                      10.1021/acs.jctc.8b01176
      * Hamiltonian:
        H0-scaling (s, p, d)           1.850000    2.230000    2.230000
        zeta-weighting                 0.500000
      * Dispersion:
        s8                             2.700000
        a1                             0.520000
        a2                             5.000000
        s9                             5.000000
      * Repulsion:
        kExp                           1.500000    1.000000
        rExp                           1.000000
      * Coulomb:
        alpha                          2.000000
        third order                    shell-resolved
        anisotropic                    true
        a3                             3.000000
        a5                             4.000000
        cn-shift                       1.200000
        cn-exp                         4.000000
        max-rad                        5.000000


          ...................................................
          :                      SETUP                      :
          :.................................................:
          :  # basis functions                  48          :
          :  # atomic orbitals                  48          :
          :  # shells                           24          :
          :  # electrons                        36          :
          :  max. iterations                   250          :
          :  Hamiltonian                  GFN2-xTB          :
          :  restarted?                      false          :
          :  GBSA solvation                  false          :
          :  PC potential                    false          :
          :  electronic temp.          300.0000000     K    :
          :  accuracy                    0.2000000          :
          :  -> integral cutoff          0.3198970E+02      :
          :  -> integral neglect         0.2000000E-08      :
          :  -> SCF convergence          0.2000000E-06 Eh   :
          :  -> wf. convergence          0.2000000E-04 e    :
          :  Broyden damping             0.4000000          :
          ...................................................

 iter      E             dE          RMSdq      gap      omega  full diag
   1    -12.5617946 -0.125618E+02  0.196E+01    0.19       0.0  T
   2      0.8271947  0.133890E+02  0.234E+01    0.64       1.0  T
   3      4.1834050  0.335621E+01  0.223E+01    0.53       1.0  T
   4     -3.9588304 -0.814224E+01  0.190E+01    0.24       1.0  T
   5     -6.7335713 -0.277474E+01  0.158E+01    0.11       1.0  T
   6     -4.5842930  0.214928E+01  0.150E+01    0.25       1.0  T
   7    -11.3087568 -0.672446E+01  0.114E+01    0.21       1.0  T
   8    -12.7357732 -0.142702E+01  0.922E+00    0.24       1.0  T
   9    -12.6178839  0.117889E+00  0.906E+00    0.11       1.0  T
  10    -12.6371783 -0.192944E-01  0.857E+00    0.13       1.0  T
  11    -12.4885751  0.148603E+00  0.886E+00    0.12       1.0  T
  12    -12.5157104 -0.271353E-01  0.884E+00    0.13       1.0  T
  13    -12.5510674 -0.353570E-01  0.874E+00    0.13       1.0  T
  14    -13.0055205 -0.454453E+00  0.750E+00    0.18       1.0  T
  15    -12.7456267  0.259894E+00  0.722E+00    0.13       1.0  T
  16    -13.1430270 -0.397400E+00  0.656E+00    0.14       1.0  T
  17    -13.2177346 -0.747076E-01  0.641E+00    0.22       1.0  T
  18    -13.2576602 -0.399256E-01  0.622E+00    0.21       1.0  T
  19    -13.2591897 -0.152949E-02  0.569E+00    0.24       1.0  T
  20    -13.3414409 -0.822512E-01  0.524E+00    0.23       1.0  T
  21    -13.4699459 -0.128505E+00  0.450E+00    0.20       1.0  T
  22    -13.4595095  0.104364E-01  0.463E+00    0.20       1.0  T
  23    -13.5142705 -0.547610E-01  0.419E+00    0.20       1.0  T
  24    -13.7209700 -0.206700E+00  0.233E+00    0.19       1.0  T
  25    -13.6817972  0.391728E-01  0.241E+00    0.20       1.0  T
  26    -13.7047225 -0.229254E-01  0.197E+00    0.21       1.0  T
  27    -13.7094646 -0.474211E-02  0.192E+00    0.20       1.0  T
  28    -13.7342835 -0.248189E-01  0.189E+00    0.19       1.0  T
  29    -13.7342694  0.141269E-04  0.176E+00    0.18       1.0  T
  30    -13.7340831  0.186238E-03  0.167E+00    0.18       1.0  T
  31    -13.7464502 -0.123670E-01  0.110E+00    0.19       1.0  T
  32    -13.7464076  0.425326E-04  0.110E+00    0.19       1.0  T
  33    -13.7493968 -0.298912E-02  0.916E-01    0.19       1.0  T
  34    -13.7538520 -0.445528E-02  0.659E-01    0.19       1.0  T
  35    -13.7548330 -0.980938E-03  0.523E-01    0.19       1.0  T
  36    -13.7554485 -0.615512E-03  0.482E-01    0.18       1.0  T
  37    -13.7565575 -0.110903E-02  0.345E-01    0.18       1.0  T
  38    -13.7566293 -0.717787E-04  0.333E-01    0.18       1.0  T
  39    -13.7571778 -0.548472E-03  0.211E-01    0.18       1.0  T
  40    -13.7571212  0.565792E-04  0.202E-01    0.18       1.0  T
  41    -13.7572848 -0.163596E-03  0.155E-01    0.18       1.0  T
  42    -13.7572497  0.350621E-04  0.152E-01    0.18       1.0  T
  43    -13.7573591 -0.109369E-03  0.110E-01    0.17       1.0  T
  44    -13.7574414 -0.822712E-04  0.670E-02    0.17       1.0  T
  45    -13.7574448 -0.340303E-05  0.615E-02    0.17       1.0  T
  46    -13.7574724 -0.275929E-04  0.415E-02    0.17       1.0  T
  47    -13.7574809 -0.853974E-05  0.279E-02    0.17       1.0  T
  48    -13.7574847 -0.379648E-05  0.186E-02    0.17       1.6  T
  49    -13.7574868 -0.208328E-05  0.911E-03    0.17       3.2  T
  50    -13.7574876 -0.812692E-06  0.408E-03    0.17       7.1  T
  51    -13.7574877 -0.952643E-07  0.255E-03    0.17      11.3  T
  52    -13.7574877 -0.599120E-07  0.107E-03    0.17      27.1  T
  53    -13.7574878 -0.122664E-07  0.534E-04    0.17      54.0  T
  54    -13.7574878  0.110882E-08  0.630E-04    0.17      45.9  T
  55    -13.7574878 -0.240188E-08  0.388E-04    0.17      74.4  T
  56    -13.7574878 -0.904780E-09  0.261E-04    0.17     110.8  T
  57    -13.7574878 -0.693666E-09  0.559E-05    0.17     516.7  T
  58    -13.7574878 -0.415774E-10  0.256E-05    0.17    1129.2  T

   *** convergence criteria satisfied after 58 iterations ***

         #    Occupation            Energy/Eh            Energy/eV
      -------------------------------------------------------------
         1        2.0000           -0.4467160             -12.1558
       ...           ...                  ...                  ...
        13        2.0000           -0.2698014              -7.3417
        14        2.0000           -0.2545257              -6.9260
        15        2.0000           -0.2462875              -6.7018
        16        2.0000           -0.2421293              -6.5887
        17        1.8845           -0.2286615              -6.2222
        18        1.0973           -0.2246563              -6.1132
        19        0.9797           -0.2226678              -6.0591 (HOMO)
        20        0.0378           -0.2164138              -5.8889 (LUMO)
        21        0.0007           -0.2125476              -5.7837
        22                         -0.2014208              -5.4809
        23                         -0.1895289              -5.1573
        24                         -0.1862170              -5.0672
       ...                                ...                  ...
        48                          3.9180475             106.6155
      -------------------------------------------------------------
                  HL-Gap            0.0062541 Eh            0.1702 eV
             Fermi-level           -0.2231081 Eh           -6.0711 eV

 transition dipole moment (au) for excitation:          18          19
     X       Y       Z   
  -0.1263   0.2149   0.4962  total (au/Debye):    0.555   1.411
 dE (eV)             :    0.054
 oscillator strength :  0.57799E-03

 SCC (total)                   0 d,  0 h,  0 min,  0.081 sec
 SCC setup                      ...        0 min,  0.000 sec (  0.141%)
 Dispersion                     ...        0 min,  0.000 sec (  0.139%)
 classical contributions        ...        0 min,  0.000 sec (  0.037%)
 integral evaluation            ...        0 min,  0.003 sec (  3.108%)
 iterations                     ...        0 min,  0.068 sec ( 83.187%)
 molecular gradient             ...        0 min,  0.006 sec (  7.632%)
 printout                       ...        0 min,  0.005 sec (  5.732%)

         :::::::::::::::::::::::::::::::::::::::::::::::::::::
         ::                     SUMMARY                     ::
         :::::::::::::::::::::::::::::::::::::::::::::::::::::
         :: total energy             -13.159854809626 Eh    ::
         :: gradient norm              1.323446232922 Eh/a0 ::
         :: HOMO-LUMO gap              0.170181711164 eV    ::
         ::.................................................::
         :: SCC energy               -13.757487757408 Eh    ::
         :: -> isotropic ES            0.053268601812 Eh    ::
         :: -> anisotropic ES          0.000888162655 Eh    ::
         :: -> anisotropic XC         -0.025522307459 Eh    ::
         :: -> dispersion             -0.018774176778 Eh    ::
         :: repulsion energy           0.597594281836 Eh    ::
         :: add. restraining           0.000000000000 Eh    ::
         :: total charge              -0.000000000078 e     ::
         :::::::::::::::::::::::::::::::::::::::::::::::::::::


Property printout bound to 'properties.out'

           -------------------------------------------------
          | TOTAL ENERGY              -13.159854809626 Eh   |
          | GRADIENT NORM               1.323446232922 Eh/α |
          | HOMO-LUMO GAP               0.170181711164 eV   |
           -------------------------------------------------

------------------------------------------------------------------------
 * finished run on 2026/04/17 at 12:14:31.420     
------------------------------------------------------------------------
 total:
 * wall-time:     0 d,  0 h,  0 min,  0.093 sec
 *  cpu-time:     0 d,  0 h,  0 min,  0.083 sec
 * ratio c/w:     0.898 speedup
 SCF:
 * wall-time:     0 d,  0 h,  0 min,  0.081 sec
 *  cpu-time:     0 d,  0 h,  0 min,  0.072 sec
 * ratio c/w:     0.885 speedup


-------------------------   --------------------
FINAL SINGLE POINT ENERGY       -13.159854809630
-------------------------   --------------------


-------------
DIPOLE MOMENT
-------------
                                X             Y             Z
Total Dipole Moment    :      0.98600      -1.56900       0.15800
                        -----------------------------------------
Magnitude (a.u.)       :      1.85982
Magnitude (Debye)      :      4.72728


------------------
CARTESIAN GRADIENT
------------------

   1   B   :    0.130173082    0.734523484   -0.066065065
   2   B   :   -0.443304233    0.099386899    0.149665728
   3   B   :    0.178389864    0.213933691    0.205451391
   4   B   :    0.054894216    0.015740469    0.056337789
   5   B   :    0.045305913    0.023804722   -0.032703720
   6   B   :   -0.071468295   -0.000441351    0.004074236
   7   B   :   -0.014701410    0.068193532    0.032592676
   8   B   :   -0.098028549   -0.716949730    0.123116420
   9   B   :    0.014375373   -0.053707119   -0.041572997
  10   B   :    0.146718045   -0.399958426   -0.165564740
  11   B   :    0.061879461   -0.032447811   -0.246675305
  12   B   :   -0.004233466    0.047921639   -0.018656412

Difference to translation invariance:
           :   -0.0000000000   -0.0000000000    0.0000000000

Difference to rotation invariance:
           :   -0.0000000218   -0.0000000309    0.0000000329

Norm of the Cartesian gradient     ...    1.3234462329
RMS gradient                       ...    0.2205743722
MAX gradient                       ...    0.7345234843
------------------------------------------------------------------------------
                         ORCA GEOMETRY RELAXATION STEP
------------------------------------------------------------------------------

Reading the OPT-File                    .... done
Getting information on internals        .... done
Copying old internal coords+grads       .... done
Making the new internal coordinates     .... (2022 redundants) done
Validating the new internal coordinates .... (2022 redundants) done
Calculating the B-matrix                .... done
Calculating the G,G- and P matrices     .... done
Transforming gradient to internals      .... done
Projecting the internal gradient        .... done
Number of atoms                         ....  12
Number of internal coordinates          .... 145
Current Energy                          ....   -13.159854810 Eh
Current gradient norm                   ....     1.323446233 Eh/bohr
Maximum allowed component of the step   ....  0.300
Current trust radius                    ....  0.300
Evaluating the initial hessian          ....  (Almloef) done
Projecting the Hessian                  .... done
Forming the augmented Hessian           .... done
Diagonalizing the augmented Hessian     .... done
Last element of RFO vector              ....  0.870531829
Lowest eigenvalues of augmented Hessian:
 -0.435836800  0.015783249  0.027911212  0.033252577  0.036789358
Length of the computed step             ....  0.565300544
Warning: the length of the step is outside the trust region - taking restricted step instead
The input lambda is                     ....     0.014735
   iter:   5  x=   -0.022490  g=  193.021964 f(x)=     4.552127
   iter:  10  x=   -1.122027  g=    0.281878 f(x)=     0.118494
   iter:  15  x=   -1.551140  g=    0.068532 f(x)=     0.000000
The output lambda is                    ....    -1.551140 (16 iterations)
The final length of the internal step   ....  0.300000000
Converting the step to Cartesian space:
 Initial RMS(Int)=    0.0249136440
Transforming coordinates:
 Iter   0:  RMS(Cart)=    0.0466437537 RMS(Int)=    0.0248936150
 Iter   5:  RMS(Cart)=    0.0000000234 RMS(Int)=    0.0000000124
done
Storing new coordinates                 .... done

                                .--------------------.
          ----------------------|Geometry convergence|-------------------------
          Item                value                   Tolerance       Converged
          ---------------------------------------------------------------------
          RMS gradient        0.0718682903            0.0000300000      NO
          MAX gradient        0.7483048028            0.0001000000      NO
          RMS step            0.0249136440            0.0006000000      NO
          MAX step            0.2187681472            0.0010000000      NO
          -------------------------------------------------------------------------
          ........................................................
          Max(Bonds)      0.1158      Max(Angles)    1.65
          Max(Dihed)        1.75      Max(Improp)    0.00
          ---------------------------------------------------------------------

The optimization has not yet converged - more geometry cycles are needed


    ---------------------------------------------------------------------------
                         Redundant Internal Coordinates
                            (Angstroem and degrees)

        Definition                    Value    dE/dq     Step     New-Value
    ----------------------------------------------------------------------------
     1. B(B   2,B   1)                1.3139 -0.158137  0.0387    1.3526   
     2. B(B   3,B   1)                1.8219  0.042016 -0.0134    1.8085   
     3. B(B   4,B   1)                2.4593  0.002668 -0.0014    2.4579   
     4. B(B   4,B   3)                2.4005  0.039216 -0.0126    2.3879   
     5. B(B   4,B   2)                2.4164  0.001345 -0.0013    2.4151   
     6. B(B   7,B   0)                1.1717 -0.748305  0.1158    1.2874   
     7. B(B   7,B   2)                1.5982 -0.018611  0.0057    1.6039   
     8. B(B   7,B   5)                2.4528  0.022325 -0.0076    2.4452   
     9. B(B   8,B   7)                1.7064  0.032616 -0.0095    1.6969   
    10. B(B   9,B   6)                1.7054  0.073873 -0.0215    1.6839   
    11. B(B   9,B   2)                1.2834 -0.186142  0.0441    1.3275   
    12. B(B   9,B   4)                2.4844 -0.048302  0.0109    2.4953   
    13. B(B  10,B   9)                2.0390 -0.128409  0.0316    2.0706   
    14. B(B  10,B   2)                1.5688 -0.105588  0.0253    1.5941   
    15. B(B  10,B   1)                1.3324 -0.153773  0.0357    1.3681   
    16. B(B  11,B   4)                2.1156  0.042748 -0.0146    2.1010   
    17. B(B  11,B   8)                1.9437  0.023009 -0.0086    1.9351   
    18. B(B  11,B   5)                2.1196  0.045378 -0.0149    2.1047   
    19. A(B   4,B   1,B  10)          116.47  0.050741   -1.31    115.16   
    20. A(B   3,B   1,B   4)           66.28  0.007038   -0.23     66.05   
    21. A(B   2,B   1,B  10)           72.71  0.039373   -1.01     71.70   
    22. A(B   2,B   1,B   3)          114.08  0.020917   -0.60    113.48   
    23. A(B   3,B   1,B  10)           82.29  0.007935   -0.19     82.10   
    24. A(B   2,B   1,B   4)           72.57  0.015284   -0.42     72.15   
    25. A(B   1,B   2,B   4)           76.18  0.020633   -0.54     75.63   
    26. A(B   7,B   2,B  10)          144.13 -0.017658    0.54    144.67   
    27. A(B   4,B   2,B  10)          108.81  0.023581   -0.64    108.17   
    28. A(B   1,B   2,B  10)           54.19 -0.018301    0.41     54.60   
    29. A(B   4,B   2,B   7)          106.93 -0.007252    0.14    107.07   
    30. A(B   1,B   2,B   9)          124.40  0.022097   -0.55    123.85   
    31. A(B   4,B   2,B   9)           77.77  0.003622   -0.08     77.69   
    32. A(B   1,B   2,B   7)          134.61  0.003791   -0.02    134.59   
    33. A(B   7,B   2,B   9)           99.77 -0.022384    0.47    100.24   
    34. A(B   9,B   2,B  10)           90.70  0.038886   -0.94     89.76   
    35. A(B   1,B   3,B   4)           69.71 -0.013464    0.45     70.16   
    36. A(B   2,B   4,B   3)           66.63 -0.019715    0.49     67.11   
    37. A(B   2,B   4,B  11)           71.05  0.003655   -0.06     70.98   
    38. A(B   1,B   4,B   2)           31.25 -0.035917    0.96     32.21   
    39. A(B   2,B   4,B   9)           30.32 -0.038413    1.00     31.32   
    40. A(B   9,B   4,B  11)           69.53 -0.006990    0.18     69.70   
    41. A(B   1,B   4,B   9)           55.38 -0.062266    1.65     57.03   
    42. A(B   3,B   4,B   9)           71.63 -0.022981    0.59     72.22   
    43. A(B   3,B   4,B  11)          137.39 -0.016907    0.44    137.84   
    44. A(B   1,B   4,B   3)           44.01  0.006426   -0.22     43.80   
    45. A(B   1,B   4,B  11)           97.94 -0.026626    0.76     98.69   
    46. A(B   7,B   5,B  11)           59.60 -0.012401    0.38     59.99   
    47. A(B   0,B   7,B   2)          108.41 -0.034310    1.05    109.46   
    48. A(B   5,B   7,B   8)           92.83  0.007605   -0.26     92.57   
    49. A(B   2,B   7,B   5)          106.78  0.036146   -1.15    105.63   
    50. A(B   0,B   7,B   5)          137.60 -0.008021    0.32    137.92   
    51. A(B   2,B   7,B   8)          108.59  0.006934   -0.19    108.41   
    52. A(B   0,B   7,B   8)           97.64 -0.001169    0.01     97.64   
    53. A(B   7,B   8,B  11)           77.44 -0.018382    0.57     78.01   
    54. A(B   2,B   9,B  10)           50.30 -0.003330    0.06     50.35   
    55. A(B   4,B   9,B  10)           92.35  0.032917   -0.91     91.44   
    56. A(B   4,B   9,B   6)          103.66 -0.023534    0.59    104.25   
    57. A(B   2,B   9,B   4)           71.91  0.034790   -0.91     70.99   
    58. A(B   2,B   9,B   6)          172.23  0.020873   -0.59    171.63   
    59. A(B   6,B   9,B  10)          137.19 -0.016476    0.51    137.69   
    60. A(B   1,B  10,B   2)           53.10 -0.021072    0.60     53.70   
    61. A(B   2,B  10,B   9)           39.00 -0.035556    0.89     39.89   
    62. A(B   1,B  10,B   9)           83.09 -0.045723    1.20     84.29   
    63. A(B   4,B  11,B   5)          129.81  0.011679   -0.44    129.36   
    64. A(B   5,B  11,B   8)           97.47  0.002283   -0.01     97.46   
    65. A(B   4,B  11,B   8)          103.24 -0.016880    0.60    103.84   
    66. D(B   7,B   2,B   1,B  10)   -133.77  0.037376   -1.04   -134.81   
    67. D(B   7,B   2,B   1,B   4)    100.28  0.009295   -0.32     99.96   
    68. D(B  10,B   2,B   1,B   3)    -72.96 -0.021918    0.51    -72.45   
    69. D(B   7,B   2,B   1,B   3)    153.26  0.015458   -0.53    152.74   
    70. D(B   9,B   2,B   1,B   3)    -11.37 -0.003551    0.05    -11.32   
    71. D(B   9,B   2,B   1,B  10)     61.59  0.018366   -0.46     61.13   
    72. D(B   9,B   2,B   1,B   4)    -64.36 -0.009715    0.26    -64.10   
    73. D(B   4,B   3,B   1,B   2)    -56.31 -0.009530    0.27    -56.04   
    74. D(B   4,B   3,B   1,B  10)   -123.43 -0.051917    1.33   -122.09   
    75. D(B   2,B   4,B   1,B   3)   -127.23 -0.010255    0.29   -126.94   
    76. D(B  11,B   4,B   1,B   3)   -157.70 -0.005890    0.20   -157.50   
    77. D(B   3,B   4,B   2,B   9)     93.37  0.007627   -0.16     93.22   
    78. D(B   3,B   4,B   1,B  10)     67.51 -0.019135    0.48     67.99   
    79. D(B   3,B   4,B   2,B  10)      6.85 -0.030157    0.74      7.59   
    80. D(B   3,B   4,B   1,B   2)    127.23  0.010255   -0.29    126.94   
    81. D(B  11,B   4,B   3,B   1)     33.72 -0.019376    0.57     34.29   
    82. D(B  11,B   4,B   2,B  10)   -168.17 -0.021472    0.54   -167.63   
    83. D(B  11,B   4,B   2,B   9)    -81.64  0.016312   -0.36    -82.00   
    84. D(B   9,B   4,B   3,B   1)     58.82 -0.066118    1.75     60.57   
    85. D(B   3,B   4,B   2,B   1)    -37.07 -0.005575    0.16    -36.90   
    86. D(B   3,B   4,B   2,B   7)   -169.99 -0.013782    0.29   -169.70   
    87. D(B   2,B   4,B   3,B   1)     26.74 -0.029458    0.80     27.55   
    88. D(B  11,B   4,B   2,B   7)     14.99 -0.005097    0.09     15.08   
    89. D(B  11,B   4,B   2,B   1)    147.92  0.003110   -0.04    147.88   
    90. D(B  11,B   4,B   1,B   2)    -30.47  0.004365   -0.09    -30.56   
    91. D(B   2,B   4,B   1,B  10)    -59.72 -0.029390    0.77    -58.95   
    92. D(B  11,B   4,B   1,B  10)    -90.19 -0.025025    0.68    -89.51   
    93. D(B   0,B   7,B   2,B  10)    -32.19  0.029641   -0.82    -33.02   
    94. D(B   0,B   7,B   2,B   9)   -137.22  0.002714   -0.13   -137.35   
    95. D(B   0,B   7,B   2,B   4)    142.70  0.006027   -0.19    142.51   
    96. D(B   0,B   7,B   2,B   1)     55.59 -0.017344    0.46     56.05   
    97. D(B   8,B   7,B   5,B  11)    -42.23 -0.012946    0.44    -41.79   
    98. D(B   2,B   7,B   5,B  11)     68.16  0.002933   -0.03     68.13   
    99. D(B   8,B   7,B   2,B  10)   -137.25  0.042984   -1.21   -138.46   
   100. D(B   8,B   7,B   2,B   9)    117.72  0.016056   -0.51    117.21   
   101. D(B   8,B   7,B   2,B   1)    -49.46 -0.004002    0.08    -49.39   
   102. D(B   0,B   7,B   5,B  11)   -146.80 -0.017179    0.63   -146.17   
   103. D(B  11,B   8,B   7,B   5)     40.37  0.013726   -0.46     39.91   
   104. D(B  11,B   8,B   7,B   2)    -68.40 -0.028868    0.89    -67.50   
   105. D(B  11,B   8,B   7,B   0)    179.19  0.007141   -0.20    178.99   
   106. D(B   6,B   9,B   4,B   1)    157.96 -0.004261    0.15    158.12   
   107. D(B   6,B   9,B   4,B   2)   -173.36 -0.019275    0.55   -172.82   
   108. D(B   6,B   9,B   4,B   3)    111.72 -0.014312    0.47    112.18   
   109. D(B   6,B   9,B   4,B  11)    -86.14  0.011062   -0.17    -86.30   
   110. D(B   2,B   9,B   4,B   1)    -28.67  0.015014   -0.39    -29.07   
   111. D(B   2,B   9,B   4,B   3)    -74.92  0.004963   -0.08    -75.00   
   112. D(B   2,B   9,B   4,B  11)     87.23  0.030337   -0.71     86.52   
   113. D(B  10,B   9,B   2,B   4)   -109.10 -0.015195    0.44   -108.66   
   114. D(B  10,B   9,B   2,B   7)    145.53 -0.012127    0.39    145.92   
   115. D(B  10,B   9,B   2,B   1)    -45.50  0.002845   -0.04    -45.54   
   116. D(B   6,B   9,B   2,B   4)     56.14 -0.010475    0.29     56.42   
   117. D(B   6,B   9,B   2,B  10)    165.24  0.004720   -0.16    165.08   
   118. D(B   6,B   9,B   2,B   7)    -49.23 -0.007406    0.24    -48.99   
   119. D(B   6,B   9,B   2,B   1)    119.74  0.007565   -0.20    119.54   
   120. D(B   1,B  10,B   2,B   4)    -56.15  0.010811   -0.25    -56.40   
   121. D(B   1,B  10,B   2,B   9)   -133.46 -0.004979    0.12   -133.34   
   122. D(B   1,B  10,B   2,B   7)    118.69 -0.013982    0.42    119.10   
   123. D(B   9,B  10,B   1,B   4)     32.25  0.038897   -1.00     31.24   
   124. D(B   9,B  10,B   1,B   3)     90.85  0.029221   -0.80     90.05   
   125. D(B   9,B  10,B   1,B   2)    -27.40  0.022326   -0.55    -27.95   
   126. D(B   2,B  10,B   1,B   4)     59.64  0.016572   -0.45     59.19   
   127. D(B   9,B  10,B   2,B   1)    133.46  0.004979   -0.12    133.34   
   128. D(B   2,B  10,B   1,B   3)    118.25  0.006896   -0.25    118.00   
   129. D(B   2,B  10,B   9,B   4)    -64.02 -0.015295    0.37    -63.65   
   130. D(B   2,B  10,B   9,B   6)   -177.09 -0.009574    0.28   -176.82   
   131. D(B   1,B  10,B   9,B   4)    -28.24 -0.026103    0.68    -27.56   
   132. D(B   1,B  10,B   9,B   6)   -141.31 -0.020382    0.58   -140.73   
   133. D(B   1,B  10,B   9,B   2)     35.78 -0.010808    0.30     36.08   
   134. D(B   9,B  10,B   2,B   4)     77.32  0.015790   -0.37     76.94   
   135. D(B   9,B  10,B   2,B   7)   -107.85 -0.009003    0.30   -107.55   
   136. D(B   5,B  11,B   8,B   7)    -49.02 -0.011004    0.35    -48.68   
   137. D(B   4,B  11,B   5,B   7)    -77.74  0.028706   -1.00    -78.73   
   138. D(B   8,B  11,B   5,B   7)     36.47  0.013330   -0.40     36.07   
   139. D(B   5,B  11,B   4,B   2)     55.04 -0.010920    0.44     55.49   
   140. D(B   5,B  11,B   4,B   3)     48.28 -0.019541    0.64     48.91   
   141. D(B   8,B  11,B   4,B   9)    -88.89  0.036967   -0.93    -89.82   
   142. D(B   8,B  11,B   4,B   1)    -40.52 -0.023944    0.64    -39.88   
   143. D(B   4,B  11,B   8,B   7)     84.94 -0.003960    0.10     85.03   
   144. D(B   8,B  11,B   4,B   2)    -56.67 -0.004290    0.13    -56.54   
   145. D(B   8,B  11,B   4,B   3)    -63.44 -0.012911    0.32    -63.12   
    ----------------------------------------------------------------------------

Geometry step timings:
Preparation and reading OPT file:      0.000 s ( 0.225 %)
Internal coordinates            :      0.000 s ( 0.340 %)
B/P matrices and projection     :      0.001 s ( 8.436 %)
Hessian update/contruction      :      0.010 s (64.954 %)
Making the step                 :      0.003 s (18.328 %)
Converting the step to Cartesian:      0.000 s ( 1.302 %)
Storing new data                :      0.000 s ( 0.398 %)
Checking convergence            :      0.000 s ( 0.289 %)
Final printing                  :      0.001 s ( 5.671 %)
Total time                      :      0.016 s

Time for energy+gradient        :      0.103 s
Time for complete geometry iter :      0.120 s

         *************************************************************
         *                GEOMETRY OPTIMIZATION CYCLE   2            *
         *************************************************************
---------------------------------
CARTESIAN COORDINATES (ANGSTROEM)
---------------------------------
  B    -1.252680   -2.195055   -0.369133
  B     1.461055   -0.912920    0.621965
  B     0.183484   -0.501581    0.452741
  B     2.555018    0.378255    1.259736
  B     1.501359    1.127423   -0.747999
  B    -2.295404    1.106156   -0.938599
  B    -0.941148    2.158708    1.277309
  B    -1.020979   -0.936825   -0.512912
  B    -0.436826   -0.995397   -2.105028
  B    -0.291717    0.646804    0.919678
  B     0.887880   -0.773457    1.856511
  B    -0.350045    0.897890   -1.714270

----------------------------
CARTESIAN COORDINATES (A.U.)
----------------------------
  NO LB    ZA    FRAG    MASS        X           Y           Z
   0 B   5.0000    0    10.810   -2.367222   -4.148053   -0.697561
   1 B   5.0000    0    10.810    2.760994   -1.725168    1.175344
   2 B   5.0000    0    10.810    0.346734   -0.947851    0.855556
   3 B   5.0000    0    10.810    4.828285    0.714798    2.380557
   4 B   5.0000    0    10.810    2.837158    2.130521   -1.413512
   5 B   5.0000    0    10.810   -4.337685    2.090331   -1.773695
   6 B   5.0000    0    10.810   -1.778511    4.079367    2.413764
   7 B   5.0000    0    10.810   -1.929370   -1.770343   -0.969263
   8 B   5.0000    0    10.810   -0.825481   -1.881029   -3.977926
   9 B   5.0000    0    10.810   -0.551265    1.222282    1.737940
  10 B   5.0000    0    10.810    1.677850   -1.461621    3.508298
  11 B   5.0000    0    10.810   -0.661488    1.696766   -3.239501

      -----------------------------------------------------------      
     |                   =====================                   |     
     |                           x T B                           |     
     |                   =====================                   |     
     |                         S. Grimme                         |     
     |          Mulliken Center for Theoretical Chemistry        |     
     |                    University of Bonn                     |     
      -----------------------------------------------------------      

   * xtb version 6.6.1 (unknown) compiled by 'builduser@buildhost' on 2023-08-07

   xtb is free software: you can redistribute it and/or modify it under
   the terms of the GNU Lesser General Public License as published by
   the Free Software Foundation, either version 3 of the License, or
   (at your option) any later version.
   
   xtb is distributed in the hope that it will be useful,
   but WITHOUT ANY WARRANTY; without even the implied warranty of
   MERCHANTABILITY or FITNESS FOR A PARTICULAR PURPOSE.  See the
   GNU Lesser General Public License for more details.
   
   Cite this work as:
   * C. Bannwarth, E. Caldeweyher, S. Ehlert, A. Hansen, P. Pracht,
     J. Seibert, S. Spicher, S. Grimme, WIREs Comput. Mol. Sci., 2020, 11,
     e01493. DOI: 10.1002/wcms.1493
   
   for GFN2-xTB:
   * C. Bannwarth, S. Ehlert and S. Grimme., J. Chem. Theory Comput., 2019,
     15, 1652-1671. DOI: 10.1021/acs.jctc.8b01176
   for GFN1-xTB:
   * S. Grimme, C. Bannwarth, P. Shushkov, J. Chem. Theory Comput., 2017,
     13, 1989-2009. DOI: 10.1021/acs.jctc.7b00118
   for GFN0-xTB:
   * P. Pracht, E. Caldeweyher, S. Ehlert, S. Grimme, ChemRxiv, 2019, preprint.
     DOI: 10.26434/chemrxiv.8326202.v1
   for GFN-FF:
   * S. Spicher and S. Grimme, Angew. Chem. Int. Ed., 2020, 59, 15665-15673.
     DOI: 10.1002/anie.202004239
   
   for ALPB and GBSA implicit solvation:
   * S. Ehlert, M. Stahn, S. Spicher, S. Grimme, J. Chem. Theory Comput.,
     2021, 17, 4250-4261. DOI: 10.1021/acs.jctc.1c00471
   
   for DFT-D4:
   * E. Caldeweyher, C. Bannwarth and S. Grimme, J. Chem. Phys., 2017,
     147, 034112. DOI: 10.1063/1.4993215
   * E. Caldeweyher, S. Ehlert, A. Hansen, H. Neugebauer, S. Spicher,
     C. Bannwarth and S. Grimme, J. Chem. Phys., 2019, 150, 154122.
     DOI: 10.1063/1.5090222
   * E. Caldeweyher, J.-M. Mewes, S. Ehlert and S. Grimme, Phys. Chem. Chem. Phys.
     2020, 22, 8499-8512. DOI: 10.1039/D0CP00502A
   
   for sTDA-xTB:
   * S. Grimme and C. Bannwarth, J. Chem. Phys., 2016, 145, 054103.
     DOI: 10.1063/1.4959605
   
   in the mass-spec context:
   * V. Asgeirsson, C. Bauer and S. Grimme, Chem. Sci., 2017, 8, 4879.
     DOI: 10.1039/c7sc00601b
   * J. Koopman and S. Grimme, ACS Omega 2019, 4, 12, 15120-15133.
     DOI: 10.1021/acsomega.9b02011
   
   for metadynamics refer to:
   * S. Grimme, J. Chem. Theory Comput., 2019, 155, 2847-2862
     DOI: 10.1021/acs.jctc.9b00143
   
   for SPH calculations refer to:
   * S. Spicher and S. Grimme, J. Chem. Theory Comput., 2021, 17, 1701-1714
     DOI: 10.1021/acs.jctc.0c01306
   
   with help from (in alphabetical order)
   P. Atkinson, C. Bannwarth, F. Bohle, G. Brandenburg, E. Caldeweyher
   M. Checinski, S. Dohm, S. Ehlert, S. Ehrlich, I. Gerasimov, C. Hölzer
   A. Katbashev, J. Koopman, C. Lavigne, S. Lehtola, F. März, M. Müller,
   F. Musil, H. Neugebauer, J. Pisarek, C. Plett, P. Pracht, F. Pultar,
   J. Seibert, P. Shushkov, S. Spicher, M. Stahn, M. Steiner, T. Strunk,
   J. Stückrath, T. Rose, and J. Unsleber
   
 * started run on 2026/04/17 at 12:14:31.446     

           -------------------------------------------------
          |                Calculation Setup                |
           -------------------------------------------------

          program call               : /usr/bin/xtb random_d1.50_004_m3_XTB.xyz --grad -c 0 -u 2 -P 1 --namespace random_d1.50_004_m3 --input random_d1.50_004_m3_XTB.input.tmp --acc 0.200000
          calculation namespace      : random_d1.50_004_m3
          coordinate file            : random_d1.50_004_m3_XTB.xyz
          omp threads                :                     1

   ID    Z sym.   atoms
    1    5 B      1-12

           -------------------------------------------------
          |                 G F N 2 - x T B                 |
           -------------------------------------------------

        Reference                      10.1021/acs.jctc.8b01176
      * Hamiltonian:
        H0-scaling (s, p, d)           1.850000    2.230000    2.230000
        zeta-weighting                 0.500000
      * Dispersion:
        s8                             2.700000
        a1                             0.520000
        a2                             5.000000
        s9                             5.000000
      * Repulsion:
        kExp                           1.500000    1.000000
        rExp                           1.000000
      * Coulomb:
        alpha                          2.000000
        third order                    shell-resolved
        anisotropic                    true
        a3                             3.000000
        a5                             4.000000
        cn-shift                       1.200000
        cn-exp                         4.000000
        max-rad                        5.000000

q/qsh data taken from xtbrestart
CAMM data taken from xtbrestart

          ...................................................
          :                      SETUP                      :
          :.................................................:
          :  # basis functions                  48          :
          :  # atomic orbitals                  48          :
          :  # shells                           24          :
          :  # electrons                        36          :
          :  max. iterations                   250          :
          :  Hamiltonian                  GFN2-xTB          :
          :  restarted?                       true          :
          :  GBSA solvation                  false          :
          :  PC potential                    false          :
          :  electronic temp.          300.0000000     K    :
          :  accuracy                    0.2000000          :
          :  -> integral cutoff          0.3198970E+02      :
          :  -> integral neglect         0.2000000E-08      :
          :  -> SCF convergence          0.2000000E-06 Eh   :
          :  -> wf. convergence          0.2000000E-04 e    :
          :  Broyden damping             0.4000000          :
          ...................................................

 iter      E             dE          RMSdq      gap      omega  full diag
   1    -13.6574548 -0.136575E+02  0.285E+00    0.16       0.0  T
   2    -10.5358370  0.312162E+01  0.996E+00    0.38       1.0  T
   3    -12.4925796 -0.195674E+01  0.726E+00    0.06       1.0  T
   4    -13.3964912 -0.903912E+00  0.402E+00    0.16       1.0  T
   5    -12.5971900  0.799301E+00  0.661E+00    0.11       1.0  T
   6    -13.4742896 -0.877100E+00  0.382E+00    0.20       1.0  T
   7    -13.1115004  0.362789E+00  0.564E+00    0.14       1.0  T
   8    -13.5369123 -0.425412E+00  0.319E+00    0.14       1.0  T
   9    -13.5055163  0.313959E-01  0.355E+00    0.13       1.0  T
  10    -13.6229440 -0.117428E+00  0.239E+00    0.15       1.0  T
  11    -13.6217531  0.119091E-02  0.251E+00    0.16       1.0  T
  12    -13.6252904 -0.353730E-02  0.245E+00    0.16       1.0  T
  13    -13.6255382 -0.247723E-03  0.245E+00    0.16       1.0  T
  14    -13.6267409 -0.120273E-02  0.246E+00    0.16       1.0  T
  15    -13.6396157 -0.128748E-01  0.207E+00    0.17       1.0  T
  16    -13.6721256 -0.325099E-01  0.186E+00    0.15       1.0  T
  17    -13.7221818 -0.500561E-01  0.110E+00    0.16       1.0  T
  18    -13.7221204  0.613814E-04  0.114E+00    0.16       1.0  T
  19    -13.7227965 -0.676121E-03  0.112E+00    0.16       1.0  T
  20    -13.7229361 -0.139574E-03  0.113E+00    0.16       1.0  T
  21    -13.7227086  0.227453E-03  0.116E+00    0.16       1.0  T
  22    -13.7210380  0.167065E-02  0.118E+00    0.16       1.0  T
  23    -13.7159629  0.507511E-02  0.119E+00    0.16       1.0  T
  24    -13.7172179 -0.125500E-02  0.109E+00    0.16       1.0  T
  25    -13.7250960 -0.787813E-02  0.690E-01    0.17       1.0  T
  26    -13.7298244 -0.472844E-02  0.334E-01    0.17       1.0  T
  27    -13.7302294 -0.404937E-03  0.290E-01    0.17       1.0  T
  28    -13.7308688 -0.639445E-03  0.139E-01    0.17       1.0  T
  29    -13.7310263 -0.157452E-03  0.731E-02    0.17       1.0  T
  30    -13.7310967 -0.704063E-04  0.265E-02    0.17       1.1  T
  31    -13.7311043 -0.766569E-05  0.135E-02    0.17       2.1  T
  32    -13.7311061 -0.177388E-05  0.786E-03    0.17       3.7  T
  33    -13.7311056  0.530967E-06  0.995E-03    0.17       2.9  T
  34    -13.7311062 -0.641767E-06  0.520E-03    0.17       5.5  T
  35    -13.7311066 -0.331962E-06  0.140E-03    0.17      20.7  T
  36    -13.7311066 -0.134605E-07  0.957E-04    0.17      30.2  T
  37    -13.7311066 -0.524085E-08  0.538E-04    0.17      53.6  T
  38    -13.7311066 -0.253188E-08  0.196E-04    0.17     147.3  T
  39    -13.7311066 -0.364853E-09  0.697E-05    0.17     414.1  T

   *** convergence criteria satisfied after 39 iterations ***

         #    Occupation            Energy/Eh            Energy/eV
      -------------------------------------------------------------
         1        2.0000           -0.4430064             -12.0548
       ...           ...                  ...                  ...
        13        2.0000           -0.2687279              -7.3125
        14        2.0000           -0.2554534              -6.9512
        15        2.0000           -0.2459239              -6.6919
        16        2.0000           -0.2431896              -6.6175
        17        1.8482           -0.2285348              -6.2187
        18        1.0704           -0.2246844              -6.1140
        19        1.0364           -0.2243290              -6.1043 (HOMO)
        20        0.0446           -0.2179876              -5.9317 (LUMO)
        21        0.0005           -0.2136755              -5.8144
        22                         -0.2036516              -5.5416
        23                         -0.1890341              -5.1439
        24                         -0.1872129              -5.0943
       ...                                ...                  ...
        48                          2.3576317              64.1544
      -------------------------------------------------------------
                  HL-Gap            0.0063414 Eh            0.1726 eV
             Fermi-level           -0.2238995 Eh           -6.0926 eV

 transition dipole moment (au) for excitation:          18          19
     X       Y       Z   
   0.4089   0.5797   0.7842  total (au/Debye):    1.057   2.688
 dE (eV)             :    0.010
 oscillator strength :  0.37474E-03

 SCC (total)                   0 d,  0 h,  0 min,  0.049 sec
 SCC setup                      ...        0 min,  0.000 sec (  0.278%)
 Dispersion                     ...        0 min,  0.000 sec (  0.237%)
 classical contributions        ...        0 min,  0.000 sec (  0.069%)
 integral evaluation            ...        0 min,  0.003 sec (  5.810%)
 iterations                     ...        0 min,  0.036 sec ( 73.344%)
 molecular gradient             ...        0 min,  0.005 sec ( 11.117%)
 printout                       ...        0 min,  0.004 sec (  9.090%)

         :::::::::::::::::::::::::::::::::::::::::::::::::::::
         ::                     SUMMARY                     ::
         :::::::::::::::::::::::::::::::::::::::::::::::::::::
         :: total energy             -13.344994893046 Eh    ::
         :: gradient norm              0.733781325192 Eh/a0 ::
         :: HOMO-LUMO gap              0.172557695470 eV    ::
         ::.................................................::
         :: SCC energy               -13.731106583172 Eh    ::
         :: -> isotropic ES            0.054845413709 Eh    ::
         :: -> anisotropic ES          0.000692565075 Eh    ::
         :: -> anisotropic XC         -0.024181942341 Eh    ::
         :: -> dispersion             -0.018627487188 Eh    ::
         :: repulsion energy           0.386070371645 Eh    ::
         :: add. restraining           0.000000000000 Eh    ::
         :: total charge              -0.000000000000 e     ::
         :::::::::::::::::::::::::::::::::::::::::::::::::::::


Property printout bound to 'properties.out'

           -------------------------------------------------
          | TOTAL ENERGY              -13.344994893046 Eh   |
          | GRADIENT NORM               0.733781325192 Eh/α |
          | HOMO-LUMO GAP               0.172557695470 eV   |
           -------------------------------------------------

------------------------------------------------------------------------
 * finished run on 2026/04/17 at 12:14:31.508     
------------------------------------------------------------------------
 total:
 * wall-time:     0 d,  0 h,  0 min,  0.061 sec
 *  cpu-time:     0 d,  0 h,  0 min,  0.061 sec
 * ratio c/w:     0.998 speedup
 SCF:
 * wall-time:     0 d,  0 h,  0 min,  0.049 sec
 *  cpu-time:     0 d,  0 h,  0 min,  0.049 sec
 * ratio c/w:     0.999 speedup


-------------------------   --------------------
FINAL SINGLE POINT ENERGY       -13.344994893050
-------------------------   --------------------


-------------
DIPOLE MOMENT
-------------
                                X             Y             Z
Total Dipole Moment    :      0.97100      -1.37500       0.08000
                        -----------------------------------------
Magnitude (a.u.)       :      1.68519
Magnitude (Debye)      :      4.28341


------------------
CARTESIAN GRADIENT
------------------

   1   B   :    0.053180799    0.281644523   -0.008182074
   2   B   :   -0.339386175    0.066458246    0.102771710
   3   B   :    0.140554610    0.151829757    0.151610618
   4   B   :    0.056560637    0.017944629    0.056604903
   5   B   :    0.045565787    0.024475239   -0.033514039
   6   B   :   -0.073934433    0.001611087    0.002969543
   7   B   :   -0.013704040    0.067493590    0.032310231
   8   B   :   -0.029665664   -0.272115055    0.061912528
   9   B   :    0.014524486   -0.054206454   -0.044215721
  10   B   :    0.106205032   -0.300532235   -0.127499019
  11   B   :    0.042756808   -0.032907295   -0.176549609
  12   B   :   -0.002657848    0.048303968   -0.018219071

Difference to translation invariance:
           :   -0.0000000000    0.0000000000    0.0000000000

Difference to rotation invariance:
           :    0.0000000216    0.0000000468   -0.0000000134

Norm of the Cartesian gradient     ...    0.7337813252
RMS gradient                       ...    0.1222968875
MAX gradient                       ...    0.3393861746
------------------------------------------------------------------------------
                         ORCA GEOMETRY RELAXATION STEP
------------------------------------------------------------------------------

Reading the OPT-File                    .... done
Getting information on internals        .... done
Copying old internal coords+grads       .... done
Making the new internal coordinates     .... (2022 redundants) done
Validating the new internal coordinates .... (2022 redundants) done
Calculating the B-matrix                .... done
Calculating the G,G- and P matrices     .... done
Transforming gradient to internals      .... done
Projecting the internal gradient        .... done
Number of atoms                         ....  12
Number of internal coordinates          .... 145
Current Energy                          ....   -13.344994893 Eh
Current gradient norm                   ....     0.733781325 Eh/bohr
Maximum allowed component of the step   ....  0.300
Current trust radius                    ....  0.300
Updating the Hessian (BFGS)             .... done
Forming the augmented Hessian           .... done
Diagonalizing the augmented Hessian     .... done
Last element of RFO vector              ....  0.846473275
Lowest eigenvalues of augmented Hessian:
 -0.220595310  0.015826107  0.028329386  0.033823450  0.037145824
Length of the computed step             ....  0.628999436
Warning: the length of the step is outside the trust region - taking restricted step instead
The input lambda is                     ....     0.014734
   iter:   5  x=   -0.018370  g=  276.809022 f(x)=     5.599447
   iter:  10  x=   -0.589400  g=    0.591488 f(x)=     0.111441
   iter:  15  x=   -0.769228  g=    0.152206 f(x)=     0.000000
The output lambda is                    ....    -0.769228 (16 iterations)
The final length of the internal step   ....  0.300000000
Converting the step to Cartesian space:
 Initial RMS(Int)=    0.0249136440
Transforming coordinates:
 Iter   0:  RMS(Cart)=    0.0440271323 RMS(Int)=    0.0248529841
done
Storing new coordinates                 .... done
The predicted energy change is          ....    -0.095153592
Previously predicted energy change      ....    -0.196027331
Actually observed energy change         ....    -0.185140083
Ratio of predicted to observed change   ....     0.944460565
New trust radius                        ....     0.450000000

                                .--------------------.
          ----------------------|Geometry convergence|-------------------------
          Item                value                   Tolerance       Converged
          ---------------------------------------------------------------------
          Energy change      -0.1851400834            0.0000010000      NO
          RMS gradient        0.0365088437            0.0000300000      NO
          MAX gradient        0.2857392919            0.0001000000      NO
          RMS step            0.0249136440            0.0006000000      NO
          MAX step            0.1024828480            0.0010000000      NO
          -------------------------------------------------------------------------
          ........................................................
[...]

Reading the OPT-File                    .... done
Getting information on internals        .... done
Copying old internal coords+grads       .... done
Making the new internal coordinates     .... (2022 redundants) done
Validating the new internal coordinates .... (2022 redundants) done
Calculating the B-matrix                .... done
Calculating the G,G- and P matrices     .... done
Transforming gradient to internals      .... done
Projecting the internal gradient        .... done
Number of atoms                         ....  12
Number of internal coordinates          .... 145
Current Energy                          ....   -14.242040478 Eh
Current gradient norm                   ....     0.013404338 Eh/bohr
Maximum allowed component of the step   ....  0.300
Current trust radius                    ....  0.467
Updating the Hessian (BFGS)             .... done
Forming the augmented Hessian           .... done
Diagonalizing the augmented Hessian     .... done
Last element of RFO vector              ....  0.993202238
Lowest eigenvalues of augmented Hessian:
 -0.000155571  0.000227769  0.001065595  0.002079362  0.002920173
Length of the computed step             ....  0.117198208
The final length of the internal step   ....  0.117198208
Converting the step to Cartesian space:
 Initial RMS(Int)=    0.0097327814
Transforming coordinates:
 Iter   0:  RMS(Cart)=    0.0056611808 RMS(Int)=    0.0056542276
done
Storing new coordinates                 .... done
The predicted energy change is          ....    -0.000078854
Previously predicted energy change      ....    -0.000464870
Actually observed energy change         ....    -0.000396415
Ratio of predicted to observed change   ....     0.852742631
New trust radius                        ....     0.700000000

                                .--------------------.
          ----------------------|Geometry convergence|-------------------------
          Item                value                   Tolerance       Converged
          ---------------------------------------------------------------------
          Energy change      -0.0003964145            0.0000010000      NO
          RMS gradient        0.0006558997            0.0000300000      NO
          MAX gradient        0.0027104174            0.0001000000      NO
          RMS step            0.0097327814            0.0006000000      NO
          MAX step            0.0464997766            0.0010000000      NO
          -------------------------------------------------------------------------
          ........................................................
          Max(Bonds)      0.0063      Max(Angles)    0.88
          Max(Dihed)        2.66      Max(Improp)    0.00
          ---------------------------------------------------------------------

The optimization has not yet converged - more geometry cycles are needed


    ---------------------------------------------------------------------------
                         Redundant Internal Coordinates
                            (Angstroem and degrees)

        Definition                    Value    dE/dq     Step     New-Value
    ----------------------------------------------------------------------------
     1. B(B   2,B   1)                1.7478 -0.000608 -0.0011    1.7468   
     2. B(B   3,B   1)                1.5215 -0.000411 -0.0005    1.5210   
     3. B(B   4,B   1)                2.9106  0.000159 -0.0043    2.9063   
     4. B(B   4,B   3)                1.5516  0.001360 -0.0019    1.5497   
     5. B(B   4,B   2)                2.6366 -0.000160 -0.0020    2.6346   
     6. B(B   7,B   0)                1.5013  0.001654 -0.0017    1.4996   
     7. B(B   7,B   2)                1.5688  0.002037 -0.0053    1.5635   
     8. B(B   7,B   5)                3.7111 -0.000847  0.0039    3.7151   
     9. B(B   8,B   7)                2.3996  0.000214 -0.0012    2.3983   
    10. B(B   9,B   6)                1.5571  0.001180  0.0004    1.5575   
    11. B(B   9,B   2)                1.8208  0.000228 -0.0051    1.8157   
    12. B(B   9,B   4)                2.7187 -0.000178 -0.0036    2.7151   
    13. B(B  10,B   9)                1.5319  0.001505  0.0037    1.5355   
    14. B(B  10,B   2)                1.7139 -0.001750  0.0034    1.7172   
    15. B(B  10,B   1)                1.5218 -0.002710 -0.0005    1.5212   
    16. B(B  11,B   4)                1.6894 -0.002232  0.0063    1.6957   
    17. B(B  11,B   8)                1.5432  0.000057  0.0007    1.5439   
    18. B(B  11,B   5)                1.5397 -0.000832 -0.0017    1.5380   
    19. A(B   4,B   1,B  10)           94.99  0.000058    0.07     95.07   
    20. A(B   3,B   1,B   4)           18.91  0.000505   -0.05     18.86   
    21. A(B   2,B   1,B  10)           62.78 -0.000090    0.22     63.00   
    22. A(B   2,B   1,B   3)           77.76  0.000365    0.11     77.87   
    23. A(B   3,B   1,B  10)          113.34  0.000551    0.08    113.41   
    24. A(B   2,B   1,B   4)           63.28 -0.000057    0.03     63.31   
    25. A(B   1,B   2,B   4)           80.41  0.000190   -0.10     80.31   
    26. A(B   7,B   2,B  10)          167.63 -0.000059    0.41    168.04   
    27. A(B   4,B   2,B  10)          100.64  0.000058   -0.11    100.53   
    28. A(B   1,B   2,B  10)           52.15 -0.000577   -0.07     52.08   
    29. A(B   4,B   2,B   7)           89.51  0.000019   -0.10     89.41   
    30. A(B   1,B   2,B   9)           88.77  0.000224    0.13     88.90   
    31. A(B   4,B   2,B   9)           72.57 -0.000044   -0.04     72.53   
    32. A(B   1,B   2,B   7)          137.76  0.000592   -0.88    136.88   
    33. A(B   7,B   2,B   9)          127.16 -0.000701    0.51    127.67   
    34. A(B   9,B   2,B  10)           51.25  0.000683    0.18     51.43   
    35. A(B   1,B   3,B   4)          142.56 -0.000796    0.09    142.65   
    36. A(B   2,B   4,B   3)           51.29  0.000141    0.12     51.41   
    37. A(B   2,B   4,B  11)          103.33 -0.000017    0.02    103.35   
    38. A(B   1,B   4,B   2)           36.31 -0.000133    0.07     36.38   
    39. A(B   2,B   4,B   9)           39.72  0.000072   -0.08     39.64   
    40. A(B   9,B   4,B  11)          112.03 -0.000356    0.24    112.27   
    41. A(B   1,B   4,B   9)           52.52  0.000058    0.08     52.61   
    42. A(B   3,B   4,B   9)           70.77  0.000336    0.24     71.01   
    43. A(B   3,B   4,B  11)          139.16  0.000182   -0.13    139.03   
    44. A(B   1,B   4,B   3)           18.53  0.000291   -0.04     18.49   
    45. A(B   1,B   4,B  11)          136.57 -0.000026   -0.10    136.48   
    46. A(B   7,B   5,B  11)           53.98 -0.000104   -0.12     53.86   
    47. A(B   0,B   7,B   2)          155.87  0.001572    0.50    156.36   
    48. A(B   5,B   7,B   8)           51.89  0.000140   -0.40     51.49   
    49. A(B   2,B   7,B   5)           71.25 -0.000830    0.37     71.61   
    50. A(B   0,B   7,B   5)           86.68  0.002133    0.14     86.82   
    51. A(B   2,B   7,B   8)          119.06 -0.000508    0.04    119.10   
    52. A(B   0,B   7,B   8)           36.89  0.002058   -0.08     36.81   
    53. A(B   7,B   8,B  11)           99.98 -0.000498    0.17    100.14   
    54. A(B   2,B   9,B  10)           60.76 -0.000915    0.18     60.94   
    55. A(B   4,B   9,B  10)          102.62 -0.000846    0.03    102.65   
    56. A(B   4,B   9,B   6)           42.82 -0.000141   -0.30     42.52   
    57. A(B   2,B   9,B   4)           67.71 -0.000028    0.11     67.82   
    58. A(B   2,B   9,B   6)          104.05 -0.000034   -0.21    103.83   
    59. A(B   6,B   9,B  10)          142.72 -0.000845   -0.35    142.37   
    60. A(B   1,B  10,B   2)           65.07  0.000667   -0.15     64.92   
    61. A(B   2,B  10,B   9)           67.98  0.000233   -0.36     67.62   
    62. A(B   1,B  10,B   9)          109.70  0.000763   -0.35    109.34   
    63. A(B   4,B  11,B   5)           62.49 -0.001205    0.06     62.55   
    64. A(B   5,B  11,B   8)          142.82  0.000787   -0.22    142.59   
    65. A(B   4,B  11,B   8)          118.14  0.001154   -0.17    117.96   
    66. D(B   7,B   2,B   1,B  10)   -169.85  0.000205    0.01   -169.84   
    67. D(B   7,B   2,B   1,B   4)     78.53  0.000016    0.05     78.57   
    68. D(B  10,B   2,B   1,B   3)   -124.57 -0.000481   -0.00   -124.57   
    69. D(B   7,B   2,B   1,B   3)     65.58 -0.000277    0.01     65.59   
    70. D(B   9,B   2,B   1,B   3)    -85.48 -0.000215    0.14    -85.34   
    71. D(B   9,B   2,B   1,B  10)     39.09  0.000266    0.15     39.24   
    72. D(B   9,B   2,B   1,B   4)    -72.53  0.000077    0.18    -72.35   
    73. D(B   4,B   3,B   1,B   2)     38.14 -0.000184   -0.05     38.09   
    74. D(B   4,B   3,B   1,B  10)    -14.75  0.000001   -0.27    -15.02   
    75. D(B   2,B   4,B   1,B   3)    137.49  0.000115    0.08    137.57   
    76. D(B  11,B   4,B   1,B   3)    108.11  0.000685   -0.68    107.43   
    77. D(B   3,B   4,B   2,B   9)    107.71  0.000366    0.29    107.99   
    78. D(B   3,B   4,B   1,B  10)    166.43  0.000057   -0.30    166.13   
    79. D(B   3,B   4,B   2,B  10)     64.29 -0.000396    0.03     64.33   
    80. D(B   3,B   4,B   1,B   2)   -137.49 -0.000115   -0.08   -137.57   
    81. D(B  11,B   4,B   3,B   1)    -92.47  0.000321   -1.02    -93.49   
    82. D(B  11,B   4,B   2,B  10)   -151.96 -0.000211   -0.69   -152.65   
    83. D(B  11,B   4,B   2,B   9)   -108.54  0.000551   -0.44   -108.98   
    84. D(B   9,B   4,B   3,B   1)      9.30  0.000126   -0.06      9.24   
    85. D(B   3,B   4,B   2,B   1)     15.97  0.000180    0.08     16.05   
    86. D(B   3,B   4,B   2,B   7)   -122.82 -0.000388    0.91   -121.91   
    87. D(B   2,B   4,B   3,B   1)    -30.85  0.000251    0.11    -30.74   
    88. D(B  11,B   4,B   2,B   7)     20.93 -0.000203    0.18     21.12   
    89. D(B  11,B   4,B   2,B   1)    159.72  0.000365   -0.65    159.08   
    90. D(B  11,B   4,B   1,B   2)    -29.37  0.000570   -0.76    -30.13   
    91. D(B   2,B   4,B   1,B  10)    -56.08  0.000173   -0.23    -56.31   
    92. D(B  11,B   4,B   1,B  10)    -85.46  0.000742   -0.98    -86.44   
    93. D(B   0,B   7,B   2,B  10)    143.89 -0.000032   -2.66    141.23   
    94. D(B   0,B   7,B   2,B   9)     66.02 -0.000080    2.04     68.06   
    95. D(B   0,B   7,B   2,B   4)     -1.50 -0.000264    2.44      0.94   
    96. D(B   0,B   7,B   2,B   1)    -76.60 -0.000396   -2.63    -79.23   
    97. D(B   8,B   7,B   5,B  11)    -17.34  0.000353   -0.16    -17.49   
    98. D(B   2,B   7,B   5,B  11)    139.33  0.000771    0.33    139.66   
    99. D(B   8,B   7,B   2,B  10)    139.92  0.000308   -1.54    138.38   
   100. D(B   8,B   7,B   2,B   9)     62.05  0.000261   -0.78     61.27   
   101. D(B   8,B   7,B   2,B   1)    -80.57 -0.000056   -0.34    -80.91   
   102. D(B   0,B   7,B   5,B  11)    -30.76 -0.000157    0.48    -30.27   
   103. D(B  11,B   8,B   7,B   5)     14.13 -0.000403    0.16     14.30   
   104. D(B  11,B   8,B   7,B   2)    -11.28  0.000324    0.45    -10.83   
   105. D(B  11,B   8,B   7,B   0)    171.43 -0.000202    0.64    172.07   
   106. D(B   6,B   9,B   4,B   1)    165.85 -0.000044    0.20    166.05   
   107. D(B   6,B   9,B   4,B   2)   -145.92 -0.000303    0.16   -145.76   
   108. D(B   6,B   9,B   4,B   3)    162.14 -0.000148    0.25    162.39   
   109. D(B   6,B   9,B   4,B  11)    -61.54  0.000152   -0.24    -61.78   
   110. D(B   2,B   9,B   4,B   1)    -48.23  0.000258    0.04    -48.19   
   111. D(B   2,B   9,B   4,B   3)    -51.93  0.000155    0.09    -51.85   
   112. D(B   2,B   9,B   4,B  11)     84.38  0.000455   -0.41     83.98   
   113. D(B  10,B   9,B   2,B   4)   -120.00  0.000427    0.19   -119.81   
   114. D(B  10,B   9,B   2,B   7)    164.42  0.000075    0.70    165.13   
   115. D(B  10,B   9,B   2,B   1)    -39.67  0.000554   -0.01    -39.67   
   116. D(B   6,B   9,B   2,B   4)     23.12 -0.000259    0.28     23.39   
   117. D(B   6,B   9,B   2,B  10)    143.12 -0.000686    0.09    143.21   
   118. D(B   6,B   9,B   2,B   7)    -52.46 -0.000611    0.79    -51.67   
   119. D(B   6,B   9,B   2,B   1)    103.45 -0.000132    0.08    103.53   
   120. D(B   1,B  10,B   2,B   4)    -68.86  0.000083    0.08    -68.78   
   121. D(B   1,B  10,B   2,B   9)   -126.07 -0.000295   -0.02   -126.09   
   122. D(B   1,B  10,B   2,B   7)    146.44 -0.000148   -0.01    146.42   
   123. D(B   9,B  10,B   1,B   4)      3.72 -0.000349    0.37      4.09   
   124. D(B   9,B  10,B   1,B   3)      8.47 -0.000227    0.42      8.89   
   125. D(B   9,B  10,B   1,B   2)    -52.74 -0.000200    0.27    -52.47   
   126. D(B   2,B  10,B   1,B   4)     56.46 -0.000149    0.10     56.56   
   127. D(B   9,B  10,B   2,B   1)    126.07  0.000295    0.02    126.09   
   128. D(B   2,B  10,B   1,B   3)     61.21 -0.000026    0.15     61.36   
   129. D(B   2,B  10,B   9,B   4)    -55.20 -0.000066   -0.25    -55.45   
   130. D(B   2,B  10,B   9,B   6)    -73.98  0.000653    0.09    -73.89   
   131. D(B   1,B  10,B   9,B   4)     -4.07  0.000391   -0.39     -4.46   
   132. D(B   1,B  10,B   9,B   6)    -22.85  0.001110   -0.05    -22.90   
   133. D(B   1,B  10,B   9,B   2)     51.13  0.000457   -0.13     50.99   
   134. D(B   9,B  10,B   2,B   4)     57.21  0.000378    0.09     57.31   
   135. D(B   9,B  10,B   2,B   7)    -87.49  0.000147    1.17    -86.32   
   136. D(B   5,B  11,B   8,B   7)    -50.01  0.000343   -0.30    -50.31   
   137. D(B   4,B  11,B   5,B   7)    -64.04 -0.000194    0.70    -63.34   
   138. D(B   8,B  11,B   5,B   7)     37.10  0.000033    0.07     37.17   
   139. D(B   5,B  11,B   4,B   2)    102.59  0.000368   -0.70    101.89   
   140. D(B   5,B  11,B   4,B   3)    147.46  0.000439    0.31    147.77   
   141. D(B   8,B  11,B   4,B   9)    -75.97 -0.000165    0.16    -75.81   
   142. D(B   8,B  11,B   4,B   1)    -17.79 -0.000429    0.52    -17.27   
   143. D(B   4,B  11,B   8,B   7)     30.68  0.000009   -0.42     30.26   
   144. D(B   8,B  11,B   4,B   2)    -35.16 -0.000055    0.09    -35.06   
   145. D(B   8,B  11,B   4,B   3)      9.72  0.000016    1.10     10.82   
    ----------------------------------------------------------------------------

Geometry step timings:
Preparation and reading OPT file:      0.000 s ( 0.307 %)
Internal coordinates            :      0.000 s ( 0.457 %)
B/P matrices and projection     :      0.004 s (29.206 %)
Hessian update/contruction      :      0.002 s (15.894 %)
Making the step                 :      0.005 s (37.149 %)
Converting the step to Cartesian:      0.000 s ( 1.716 %)
Storing new data                :      0.000 s ( 0.457 %)
Checking convergence            :      0.000 s ( 0.638 %)
Final printing                  :      0.002 s (14.178 %)
Total time                      :      0.013 s

Time for energy+gradient        :      0.072 s
Time for complete geometry iter :      0.086 s




    ----------------------------------------------------------------------------
                                  WARNING !!!
       The optimization did not converge but reached the maximum number of
       optimization cycles.
       Please check your results very carefully.
    ----------------------------------------------------------------------------



--------------------------------
SUGGESTED CITATIONS FOR THIS RUN
--------------------------------

Below you find a list of papers that are relevant to this ORCA run
We neither can nor want to force you to cite these papers, but we appreciate if you do
You receive ORCA, which is the product of decades of hard work by many enthusiastic individuals, for free
The only thing we kindly ask in return is that you cite our papers,
We deeply appreciate it, if you show your appreciation for ORCA by not just citing the generic ORCA reference.

Please note that relegating all ORCA citations to the supporting information does *not* help us.
SI sections are not indexed - citations you put there will not count into any citation statistics
But we need these citations in order to attract the funding resources that allow us to do what we are doing

Therefore, if you are a happy ORCA user, please consider citing a few of the papers listed below in the main body of your paper

In addition to the list printed below, the program has created the file random_d1.50_004_m3.bibtex that contains the list in bibtex format
You can import this file easily into all common literature databanks and citation aid programs

It goes without saying that in many instances, there are alternative algorithms to achieve similar
results as the ones you have gotten from ORCA. It is, of course, also the case that in some instances
ORCA just re-implements algorithms worked out by others. We are fully aware of that and we are also
fully appreciative of our colleagues work. Hence this citation list should not be read as indicating
that the listed papers, which are focused on our own work, are the only ones worth citing. It simply
meant to make it easier for users to cite ORCA specific papers. It is not a substitute for doing your
own literature research and citing the relevant literature in a scientifically appropriate manner.

List of essential papers. We consider these as the minimum necessary citations

  1. Bannwarth, C.; Ehlert, S.; Grimme, S.
     GFN2-xTB—An Accurate and Broadly Parametrized Self-Consistent Tight-Binding Quantum Chemical Method with Multipole Electrostatics and Density-Dependent Dispersion Contributions
     J. Chem. Theory Comput. 2019 15(3), 1652-1671
     doi.org/10.1021/acs.jctc.8b01176
  2. Neese, F.
     Software update: the ORCA program system, version 6.0
     WIRES Comput. Molec. Sci. 2025 15(1), e70019
     doi.org/10.1002/wcms.70019

List of papers to cite with high priority. The work reported in these papers was absolutely
necessary for this run to complete.
Our perspective: the developers of density functionals and basis sets usually get cited in chemistry papers
Good! But without the algorithms to do something with them, the functionals or basis sets would not do anything.
Hence, in our opinion, the algorithm design and method developments papers are equally worthy of getting cited

  1. Bannwarth, C.; Caldeweyher, E.; Ehlert, S.; Hansen, A.; Pracht, P.; Seibert, J.; Spicher, S.; Grimme, S.
     Extended tight-binding quantum chemistry methods
     WIRES Comput. Molec. Sci. 2020 11(2), e1493
     doi.org/10.1002/wcms.1493

List of suggested additional citations. These are papers that are important in the 'surrounding' of 
of this run, or papers that preceded the highly important papers. If you like your results we are grateful for a citation.

  1. Neese, F.
     The ORCA program system
     WIRES Comput. Molec. Sci. 2012 2(1), 73-78
     doi.org/10.1002/wcms.81
  2. Neese, F.
     Software update: the ORCA program system, version 4.0
     WIRES Comput. Molec. Sci. 2018 8(1), 1-6
     doi.org/10.1002/wcms.1327
  3. Neese, F.; Wennmohs, F.; Becker, U.; Riplinger, C.
     The ORCA quantum chemistry program package
     J. Chem. Phys. 2020 152(22), 224108
     doi.org/10.1063/5.0004608
  4. Neese, F.
     Software update: The ORCA program system—Version 5.0
     WIRES Comput. Molec. Sci. 2022 12(1), e1606
     doi.org/10.1002/wcms.1606

List of optional additional citations

  1. Neese, F.
     Approximate second-order SCF convergence for spin unrestricted wavefunctions
     Chem. Phys. Lett. 2000 325(1-3), 93-98
     doi.org/10.1016/s0009-2614(00)00662-x

Timings for individual modules:

Sum of individual times          ...        3.614 sec (=   0.060 min)
Geometry relaxation              ...        0.469 sec (=   0.008 min)  13.0 %
XTB module                       ...        3.145 sec (=   0.052 min)  87.0 %
                             ****ORCA TERMINATED NORMALLY****
TOTAL RUN TIME: 0 days 0 hours 0 minutes 4 seconds 153 msec
