
                                 *****************
                                 * O   R   C   A *
                                 *****************

                                            #,                                       
                                            ###                                      
                                            ####                                     
                                            #####                                    
                                            ######                                   
                                           ########,                                 
                                     ,,################,,,,,                         
                               ,,#################################,,                 
                          ,,##########################################,,             
                       ,#########################################, ''#####,          
                    ,#############################################,,   '####,        
                  ,##################################################,,,,####,       
                ,###########''''           ''''###############################       
              ,#####''   ,,,,##########,,,,          '''####'''          '####       
            ,##' ,,,,###########################,,,                        '##       
           ' ,,###''''                  '''############,,,                           
         ,,##''                                '''############,,,,        ,,,,,,###''
      ,#''                                            '''#######################'''  
     '                                                          ''''####''''         
             ,#######,   #######,   ,#######,      ##                                
            ,#'     '#,  ##    ##  ,#'     '#,    #''#        ,####,    ,#,          
            ##       ##  ##   ,#'  ##            #'  '#       #'       ,# #          
            ##       ##  #######   ##           ,######,      #####,      #          
            '#,     ,#'  ##    ##  '#,     ,#' ,#      #,     #,   #      #          
             '#######'   ##     ##  '#######'  #'      '#     '####' #    #          



                #########################################################
                #                        -***-                          #
                #          Department of theory and spectroscopy        #
                #                                                       #
                #                      Frank Neese                      #
                #                                                       #
                #     Directorship, Architecture, Infrastructure        #
                #                    SHARK, DRIVERS                     #
                #        Core code/Algorithms in most modules           #
                #                                                       #
                #        Max Planck Institute fuer Kohlenforschung      #
                #                Kaiser Wilhelm Platz 1                 #
                #                 D-45470 Muelheim/Ruhr                 #
                #                      Germany                          #
                #                                                       #
                #                  All rights reserved                  #
                #                        -***-                          #
                #########################################################


                         Program Version 6.1.1  -  RELEASE   -
                                (GIT: $487d211c$)
                          ($2025-11-21 10:33:24 +0100$)
                                                                         
                                  - NO-DMRG VERSION -                    
                                                                         


 With contributions from (in alphabetic order):
[Max-Planck-Institut fuer Kohlenforschung]                               
  Daniel Aravena         : Magnetic Suceptibility                        
  Michael Atanasov       : Ab Initio Ligand Field Theory (pilot matlab implementation)
  Alexander A. Auer      : GIAO ZORA, VPT2 properties, NMR spectrum      
  Ute Becker             : All parallelization in ORCA, NUMFREQ, NUMCALC 
  Giovanni Bistoni       : ED, misc. LED, open-shell LED, HFLD           
  Dmytro Bykov           : pre 5.0 version of the SCF Hessian            
  Marcos Casanova-Páez   : Triplet and SCS-CIS(D). UHF-(DLPNO)-IP/EA/STEOM-CCSD. UHF-CVS-IP/STEOM-CCSD   
  Vijay G. Chilkuri      : MRCI spin determinant printing, contributions to CSF-ICE 
  Pauline Colinet        : FMM embedding                                 
  Dipayan Datta          : RHF DLPNO-CCSD density                        
  Achintya Kumar Dutta   : EOM-CC, STEOM-CC                              
  Nicolas Foglia         : Exact transition moments, OPA infrastructure, MCD improvements    
  Dmitry Ganyushin       : Spin-Orbit,Spin-Spin,Magnetic field MRCI      
  Miquel Garcia-Rates    : C-PCM and meta-GGA Hessian, CCSD/C-PCM, Gaussian charge scheme 
  Tiago L. C. Gouveia    : GS-ROHF, GS-ROCIS                             
  Yang Guo               : DLPNO-NEVPT2, F12-NEVPT2, CIM, IAO-localization        
  Andreas Hansen         : Spin unrestricted coupled pair/coupled cluster methods 
  Ingolf Harden          : AUTO-CI MPn and infrastructure                
  Benjamin Helmich-Paris : MC-RPA, TRAH-(SCF,CASSCF), AVAS, COSX integrals, SCF dyn. polar., MC-PDFT, srDFT 
  Lee Huntington         : MR-EOM, pCC                                   
  Robert Izsak           : Overlap fitted RIJCOSX, COSX-SCS-MP3, EOM     
  Riya Kayal             : Wick's Theorem for AUTO-CI, AUTO-CI UHF-CCSDT 
  Emily Kempfer          : AUTO-CI RHF CISDT and CCSDT, approximate NEVPT4
  Christian Kollmar      : KDIIS, OOCD, Brueckner-CCSD(T), CCSD density, CASPT2, CASPT2-K, improved NEVPT2 
  Axel Koslowski         : Symmetry handling                             
  Simone Kossmann        : meta-GGA functionals, TD-DFT gradient, OOMP2, (MP2 Hessian; deprecated post 5.0) 
  Lucas Lang             : DCDCAS, Hyperfine gauge corrections, ICE-SOC+SSC
  Marvin Lechner         : AUTO-CI (C++ implementation), FIC-MRCC        
  Spencer Leger          : CASSCF response                               
  Dagmar Lenk            : GEPOL surface, SMD, ORCA-2-JSON               
  Dimitrios Liakos       : Extrapolation schemes; Compound Job, Property file
  Dimitrios Manganas     : Further ROCIS development; embedding schemes. LFT, Crystal Embedding 
  Dimitrios Pantazis     : SARC Basis sets                               
  Anastasios Papadopoulos: AUTO-CI, single reference methods and gradients 
  Taras Petrenko         : pre 6.0 DFT Hessian and TD-DFT gradient,  ECA, NRVS 
  Petra Pikulova         : Analytic Raman intensities                    
  Peter Pinski           : DLPNO-MP2, DLPNO-MP2 Gradient                 
  Shashank Vittal Rao    : ES-AILFT, MagRelax                            
  Christoph Reimann      : Effective Core Potentials                     
  Marius Retegan         : Local ZFS, SOC                                
  Christoph Riplinger    : Optimizer, TS searches, QM/MM, DLPNO-CCSD(T), (RO)-DLPNO pert. Triples 
  Michael Roemelt        : Original ROCIS implementation, recursive CI coupling coefficients
  Masaaki Saitow         : Open-shell DLPNO-CCSD energy and density      
  Barbara Sandhoefer     : DKH picture change effects                    
  Yorick L. A. Schmerwitz: GMF and freeze-and-release deltaSCF, NEB S-IDPP initial path                    
  Kantharuban Sivalingam : CASSCF convergence/infrastructure, NEVPT2, NEVPT3, NEVPT4(SD), FIC-MRCI and CEPA variants
  Bernardo de Souza      : ESD, SOC TD-DFT                               
  Georgi L. Stoychev     : AutoAux, RI-MP2 NMR, DLPNO-MP2 response, X2C  
  Van Anh Tran           : RI-MP2 g-tensors                              
  Willem Van den Heuvel  : Paramagnetic NMR                              
  Zikuan Wang            : NOTCH, Electric field optimization            
  Frank Wennmohs         : Technical directorship and infrastructure     
  Hang Xu                : AUTO-CI-Response properties                   
                                                                         
[FACCTs GmbH]                                                            
  Markus Bursch, Nicolas Foglia, Miquel Garcia-Rates, Ingolf Harden, Hagen Neugebauer, Anastasios Papadopoulos, 
  Christoph Riplinger, Bernardo de Souza, Georgi L. Stoychev                                                    
                                                                 
  APM, various basis sets, CI-OPT, improved COSX, DLPNO-Multilevel,           
  DOCKER, DRACO, updates on ESD, Fragmentator, GOAT, IRC, LR-CPCM, L-BFGS, MBIS, meta-GGA TD-DFT gradient, ML-optimized integration grids, 
  MM, NACMEs, nearIR, NEB, NEB-TS, NL-DFT gradient (VV10), 2- and 3-layer-ONIOM, interface openCOSMO-RS, QMMM,   
  Crystal-QMMM, RESP, rigid body optimization, SF, symmetry and pop. for TD-DFT, various functionals, SOLVATOR                                   
                                                                         
[Other institutions]                                                     
  V. Asgeirsson          : NEB                                           
  Christoph Bannwarth    : sTDA-DFT, sTD-DFT, PBEh-3c, B97-3c, D3        
  Giovanni Bistoni       : ETS/NOCV, ADLD/ADEX, COVALED                  
  Martin Brehm           : Molecular dynamics                            
  Ronald Cardenas        : ETS/NOCV                                      
  Martina Colucci        : COVALED                                       
  Sebastian Ehlert       : rSCAN, r2SCAN, r2SCAN-3c, D4, dhf basis sets  
  Marvin Friede          : D4 for Fr, Ra, Ac-Lr                          
  Lars Goerigk           : TD-DFT with DH, B97 family of functionals     
  Stefan Grimme          : VdW corrections, initial TS optimization, DFT functionals, gCP, sTDA/sTD-DF 
  Waldemar Hujo          : DFT-NL                                        
  H. Jonsson             : NEB                                           
  Holger Kruse           : gCP                                           
  Marcel Mueller         : wB97X-3c, vDZP basis set                      
  Hagen Neugebauer       : wr2SCAN, Native XTB                           
  Gianluca Regni         : ADLD/ADEX                                     
  Tobias Risthaus        : pre 6.0 range-separated hybrid DFT and stability analysis
  Lukas Wittmann         : regularized MP2, r2SCAN double-hybrids, wr2SCAN        
                                                                         
We gratefully acknowledge several colleagues who have allowed us to      
interface, adapt or use parts of their codes:                            
  Ed Valeev, F. Pavosevic, A. Kumar             : LibInt (2-el integral package), F12 methods 
  Garnet Chan, S. Sharma, J. Yang, R. Olivares  : DMRG                   
  Ulf Ekstrom                                   : XCFun DFT Library      
  Mihaly Kallay                                 : mrcc  (arbitrary order and MRCC methods)
  Frank Weinhold                                : gennbo (NPA and NBO analysis)           
  Simon Mueller                                 : openCOSMO-RS                            
  Christopher J. Cramer and Donald G. Truhlar   : smd solvation model                     
  S Lehtola, MJT Oliveira, MAL Marques          : LibXC Library                           
  Liviu Ungur et al                             : ANISO software                          


 Your calculation uses the libint2 library for the computation of 2-el integrals
 For citations please refer to: http://libint.valeyev.net

 Your ORCA version has been built with support for libXC version: 7.0.0
 For citations please refer to: https://libxc.gitlab.io

 This ORCA versions uses:
   CBLAS   interface :  Fast vector & matrix operations
   LAPACKE interface :  Fast linear algebra routines
   SCALAPACK package :  Parallel linear algebra routines
   Shared memory     :  Shared parallel matrices
   BLAS/LAPACK       :  OpenBLAS 0.3.29  USE64BITINT DYNAMIC_ARCH NO_AFFINITY Zen SINGLE_THREADED
        Core in use  :  Zen
   Copyright (c) 2011-2014, The OpenBLAS Project


  ***********************************
  * Starting time: Fri Apr 17 12:14:41 2026
  * Host name:     vmi3233575
  * Process ID:    338288
  * Working dir.:  /root/orca_b12_vps_pack/jobs/01_xtb/mult_3
  ***********************************

NOTE: MaxCore=500 MB was set to SCF,MP2,MDCI,CIPSI,MRCI,RASCI and CIS
      => If you want to overwrite this, your respective input block should be placed after the MaxCore statement


***************************************
The coordinates will be read from file: ../../../starts/random_d1.70_010.xyz
***************************************


Your calculation utilizes the semiempirical GFN2-xTB method
Please cite in your paper:
Bannwarth, C.; Ehlert S.; Grimme, S. J. Chem. Theory Comput. 2019, 15, 1652.
   

================================================================================

================================================================================
                                        WARNINGS
                       Please study these warnings very carefully!
================================================================================


WARNING: Geometry Optimization
  ===> : Switching off AutoStart
         For restart on a previous wavefunction, please use MOREAD

WARNING: Found dipole moment calculation with XTB calculation
  ===> : Switching off dipole moment calculation

Environment variable XTBEXE for xtb has been set!

================================================================================
                                       INPUT FILE
================================================================================
NAME = random_d1.70_010_m3.inp
|  1> ! GFN2-xTB TightSCF TightOpt
|  2> 
|  3> %pal
|  4>   nprocs 1
|  5> end
|  6> 
|  7> %maxcore 500
|  8> 
|  9> * xyzfile 0 3 ../../../starts/random_d1.70_010.xyz
| 10> 
| 11>                          ****END OF INPUT****
================================================================================

                       *****************************
                       * Geometry Optimization Run *
                       *****************************

Geometry optimization settings:
Update method            Update   .... BFGS
Choice of coordinates    CoordSys .... (2022) Redundant Internals
Initial Hessian          InHess   .... Almloef's Model
Max. no of cycles        MaxIter  .... 50

Convergence Tolerances:
Energy Change            TolE     ....  1.0000e-06 Eh
Max. Gradient            TolMAXG  ....  1.0000e-04 Eh/bohr
RMS Gradient             TolRMSG  ....  3.0000e-05 Eh/bohr
Max. Displacement        TolMAXD  ....  1.0000e-03 bohr
RMS Displacement         TolRMSD  ....  6.0000e-04 bohr
Strict Convergence                .... False

------------------------------------------------------------------------------
                        ORCA OPTIMIZATION COORDINATE SETUP
------------------------------------------------------------------------------

The optimization will be done in redundant internal coordinates (2022)
Making redundant internal coordinates   ...  (2022 redundants) done
Evaluating the initial hessian          ...  (Almloef) done
Evaluating the coordinates              ...  done
Calculating the B-matrix                .... done
Calculating the G-matrix                .... done
The number of degrees of freedom        ....  141

    -----------------------------------------------------------------
                    Redundant Internal Coordinates


    -----------------------------------------------------------------
         Definition                    Initial Value    Approx d2E/dq
    -----------------------------------------------------------------
      1. B(B   1,B   0)                  1.4098         0.779344   
      2. B(B   2,B   0)                  1.9919         0.091846   
      3. B(B   6,B   5)                  2.7643         0.010000   
      4. B(B   6,B   0)                  2.1625         0.049081   
      5. B(B   7,B   5)                  2.2034         0.042228   
      6. B(B   7,B   6)                  2.4668         0.016045   
      7. B(B   8,B   5)                  2.4187         0.019147   
      8. B(B   8,B   3)                  1.5954         0.394215   
      9. B(B   9,B   4)                  1.3834         0.858862   
     10. B(B   9,B   2)                  2.0507         0.074006   
     11. B(B  10,B   4)                  1.9752         0.097652   
     12. B(B  10,B   2)                  1.4415         0.693830   
     13. B(B  10,B   9)                  1.8908         0.133182   
     14. B(B  10,B   5)                  2.0809         0.066232   
     15. B(B  10,B   8)                  2.8451         0.010000   
     16. B(B  11,B   5)                  2.2350         0.037605   
     17. B(B  11,B   7)                  1.3952         0.822390   
     18. B(B  11,B   8)                  2.2101         0.041210   
     19. A(B   1,B   0,B   2)          120.6866         0.335123   
     20. A(B   2,B   0,B   6)           91.6223         0.220632   
     21. A(B   1,B   0,B   6)          109.5693         0.302577   
     22. A(B   9,B   2,B  10)           62.7362         0.317296   
     23. A(B   0,B   2,B  10)          109.0803         0.328733   
     24. A(B   0,B   2,B   9)          144.3074         0.233455   
     25. A(B   9,B   4,B  10)           65.7990         0.344110   
     26. A(B   8,B   5,B  10)           78.0420         0.187786   
     27. A(B   7,B   5,B  11)           36.6339         0.192945   
     28. A(B   6,B   5,B  11)           94.0448         0.154201   
     29. A(B   7,B   5,B  10)          103.2015         0.207152   
     30. A(B   8,B   5,B  11)           56.5403         0.175907   
     31. A(B  10,B   5,B  11)          120.1411         0.204092   
     32. A(B   6,B   5,B   8)          124.8337         0.144964   
     33. A(B   6,B   5,B  10)           80.9714         0.163113   
     34. A(B   6,B   5,B   7)           58.2445         0.155935   
     35. A(B   7,B   5,B   8)           77.9923         0.178218   
     36. A(B   5,B   6,B   7)           49.4207         0.142770   
     37. A(B   0,B   6,B   7)          100.6900         0.177688   
     38. A(B   0,B   6,B   5)           98.5704         0.158253   
     39. A(B   5,B   7,B   6)           72.3348         0.174720   
     40. A(B   6,B   7,B  11)          142.7113         0.256857   
     41. A(B   5,B   7,B  11)           72.9136         0.297957   
     42. A(B   3,B   8,B  11)          124.9975         0.264946   
     43. A(B  10,B   8,B  11)           94.6377         0.151241   
     44. A(B   3,B   8,B  10)           96.0196         0.192766   
     45. A(B   5,B   8,B  11)           57.5308         0.177726   
     46. A(B   5,B   8,B  10)           45.6860         0.141327   
     47. A(B   3,B   8,B   5)          137.7700         0.236921   
     48. A(B   2,B   9,B   4)           98.4020         0.328593   
     49. A(B   4,B   9,B  10)           72.3378         0.362672   
     50. A(B   2,B   9,B  10)           42.6628         0.246130   
     51. A(B   2,B  10,B   4)           99.7955         0.332082   
     52. A(B   5,B  10,B   9)          150.6472         0.242232   
     53. A(B   4,B  10,B   9)           41.8632         0.256306   
     54. A(B   2,B  10,B   9)           74.6010         0.349768   
     55. A(B   5,B  10,B   8)           56.2720         0.158298   
     56. A(B   4,B  10,B   8)           81.3862         0.164663   
     57. A(B   2,B  10,B   8)          158.8958         0.206930   
     58. A(B   4,B  10,B   5)          136.6522         0.231839   
     59. A(B   2,B  10,B   5)          122.9199         0.311633   
     60. A(B   8,B  10,B   9)          116.6035         0.170168   
     61. A(B   7,B  11,B   8)          105.5846         0.296806   
     62. A(B   5,B  11,B   7)           70.4525         0.292545   
     63. A(B   5,B  11,B   8)           65.9289         0.192372   
     64. D(B   9,B   2,B   0,B   6)   -131.8912         0.010000   
     65. D(B  10,B   2,B   0,B   1)     51.6462         0.010000   
     66. D(B  10,B   2,B   0,B   6)    -62.3358         0.010000   
     67. D(B   9,B   2,B   0,B   1)    -17.9092         0.010000   
     68. D(B   7,B   6,B   5,B  11)      8.1642         0.010000   
     69. D(B   0,B   6,B   5,B   7)     96.7716         0.010000   
     70. D(B   5,B   6,B   0,B   2)     37.0355         0.010000   
     71. D(B   7,B   6,B   0,B   1)    -36.3304         0.010000   
     72. D(B   0,B   6,B   5,B  11)    104.9359         0.010000   
     73. D(B   7,B   6,B   5,B  10)   -111.7342         0.010000   
     74. D(B   0,B   6,B   5,B   8)     53.5580         0.010000   
     75. D(B   0,B   6,B   5,B  10)    -14.9626         0.010000   
     76. D(B   7,B   6,B   0,B   2)     87.1680         0.010000   
     77. D(B   5,B   6,B   0,B   1)    -86.4629         0.010000   
     78. D(B  11,B   7,B   5,B   8)    -48.8049         0.010000   
     79. D(B   5,B   7,B   6,B   0)    -92.1777         0.010000   
     80. D(B  11,B   7,B   6,B   5)    -21.9974         0.010000   
     81. D(B  11,B   7,B   6,B   0)   -114.1751         0.010000   
     82. D(B   6,B   7,B   5,B   8)    144.9283         0.010000   
     83. D(B   6,B   7,B   5,B  11)   -166.2668         0.010000   
     84. D(B  11,B   7,B   5,B  10)   -123.2909         0.010000   
     85. D(B   6,B   7,B   5,B  10)     70.4423         0.010000   
     86. D(B  11,B   7,B   5,B   6)    166.2668         0.010000   
     87. D(B  11,B   8,B   5,B  10)    139.0425         0.010000   
     88. D(B   3,B   8,B   5,B  10)     30.9571         0.010000   
     89. D(B   3,B   8,B   5,B   7)    -75.5248         0.010000   
     90. D(B   3,B   8,B   5,B  11)   -108.0855         0.010000   
     91. D(B  11,B   8,B   5,B   6)     69.0906         0.010000   
     92. D(B   3,B   8,B   5,B   6)    -38.9948         0.010000   
     93. D(B  11,B   8,B   5,B   7)     32.5607         0.010000   
     94. D(B   4,B   9,B   2,B   0)     32.8011         0.010000   
     95. D(B   2,B   9,B   4,B  10)     34.1943         0.032046   
     96. D(B  10,B   9,B   2,B   0)     85.0060         0.010000   
     97. D(B   4,B   9,B   2,B  10)    -52.2049         0.010000   
     98. D(B   5,B  10,B   9,B   4)   -103.8072         0.010000   
     99. D(B   5,B  10,B   9,B   2)    131.3175         0.010000   
    100. D(B   4,B  10,B   9,B   2)   -124.8753         0.010000   
    101. D(B   5,B  10,B   8,B   3)   -159.6566         0.010000   
    102. D(B   4,B  10,B   8,B   5)   -170.2241         0.010000   
    103. D(B   4,B  10,B   8,B  11)    156.0757         0.010000   
    104. D(B   2,B  10,B   8,B   5)     94.8766         0.010000   
    105. D(B   2,B  10,B   8,B  11)     61.1764         0.010000   
    106. D(B   2,B  10,B   8,B   3)    -64.7799         0.010000   
    107. D(B   4,B  10,B   5,B   8)     14.1565         0.010000   
    108. D(B   4,B  10,B   5,B  11)     53.3814         0.010000   
    109. D(B   4,B  10,B   5,B   7)     88.6045         0.010000   
    110. D(B   4,B  10,B   5,B   6)    142.8272         0.010000   
    111. D(B   2,B  10,B   5,B   8)   -154.6982         0.010000   
    112. D(B   2,B  10,B   5,B  11)   -115.4732         0.010000   
    113. D(B   2,B  10,B   5,B   7)    -80.2501         0.010000   
    114. D(B   2,B  10,B   5,B   6)    -26.0275         0.010000   
    115. D(B   8,B  10,B   4,B   9)    147.9658         0.010000   
    116. D(B   5,B  10,B   4,B   9)    136.0938         0.010000   
    117. D(B   4,B  10,B   8,B   3)     30.1193         0.010000   
    118. D(B   2,B  10,B   4,B   9)    -53.3837         0.010000   
    119. D(B   8,B  10,B   2,B   0)    -16.8506         0.026274   
    120. D(B   9,B  10,B   2,B   0)   -142.0474         0.026274   
    121. D(B   2,B  10,B   9,B   4)    124.8753         0.010000   
    122. D(B   4,B  10,B   2,B   9)     33.7518         0.026274   
    123. D(B   4,B  10,B   2,B   0)   -108.2956         0.026274   
    124. D(B   5,B  10,B   2,B   9)   -153.9865         0.026274   
    125. D(B   8,B  10,B   9,B   2)   -160.7872         0.010000   
    126. D(B   8,B  10,B   9,B   4)    -35.9119         0.010000   
    127. D(B   5,B  10,B   2,B   0)     63.9662         0.026274   
    128. D(B   5,B  11,B   8,B  10)     28.0710         0.010000   
    129. D(B   5,B  11,B   8,B   3)    128.7457         0.010000   
    130. D(B   7,B  11,B   8,B  10)    -31.5952         0.010000   
    131. D(B   7,B  11,B   8,B   3)     69.0796         0.010000   
    132. D(B   8,B  11,B   7,B   6)     78.6695         0.032239   
    133. D(B   8,B  11,B   7,B   5)     56.7452         0.032239   
    134. D(B   5,B  11,B   7,B   6)     21.9244         0.032239   
    135. D(B   8,B  11,B   5,B   7)   -118.0896         0.010000   
    136. D(B   8,B  11,B   5,B   6)   -129.7650         0.010000   
    137. D(B   7,B  11,B   8,B   5)    -59.6661         0.010000   
    138. D(B   8,B  11,B   5,B  10)    -47.8624         0.010000   
    139. D(B   7,B  11,B   5,B   8)    118.0896         0.010000   
    140. D(B   7,B  11,B   5,B   6)    -11.6754         0.010000   
    141. D(B   7,B  11,B   5,B  10)     70.2272         0.010000   
    -----------------------------------------------------------------

Number of atoms                         .... 12
Number of degrees of freedom            .... 141


         *************************************************************
         *                GEOMETRY OPTIMIZATION CYCLE   1            *
         *************************************************************
---------------------------------
CARTESIAN COORDINATES (ANGSTROEM)
---------------------------------
  B     1.954403   -0.297303    1.526739
  B     1.698672    1.054624    1.834194
  B     0.454226   -1.575387    1.237453
  B    -2.337089    1.783737   -0.175012
  B    -1.975907   -0.577075    1.451935
  B     0.079248   -0.650053   -1.707292
  B     2.576988   -0.465462   -0.537356
  B     1.163470    1.264200   -1.584024
  B    -1.722821    0.928345   -1.373409
  B    -1.548799   -1.889588    1.544929
  B    -0.457585   -1.020266    0.268802
  B     0.115194    1.444227   -2.486958

----------------------------
CARTESIAN COORDINATES (A.U.)
----------------------------
  NO LB    ZA    FRAG    MASS        X           Y           Z
   0 B   5.0000    0    10.810    3.693286   -0.561821    2.885118
   1 B   5.0000    0    10.810    3.210025    1.992950    3.466125
   2 B   5.0000    0    10.810    0.858363   -2.977049    2.338447
   3 B   5.0000    0    10.810   -4.416457    3.370775   -0.330725
   4 B   5.0000    0    10.810   -3.733923   -1.090513    2.743759
   5 B   5.0000    0    10.810    0.149757   -1.228422   -3.226314
   6 B   5.0000    0    10.810    4.869801   -0.879596   -1.015456
   7 B   5.0000    0    10.810    2.198639    2.388992   -2.993371
   8 B   5.0000    0    10.810   -3.255660    1.754318   -2.595367
   9 B   5.0000    0    10.810   -2.926805   -3.570804    2.919493
  10 B   5.0000    0    10.810   -0.864710   -1.928024    0.507962
  11 B   5.0000    0    10.810    0.217684    2.729194   -4.699669

      -----------------------------------------------------------      
     |                   =====================                   |     
     |                           x T B                           |     
     |                   =====================                   |     
     |                         S. Grimme                         |     
     |          Mulliken Center for Theoretical Chemistry        |     
     |                    University of Bonn                     |     
      -----------------------------------------------------------      

   * xtb version 6.6.1 (unknown) compiled by 'builduser@buildhost' on 2023-08-07

   xtb is free software: you can redistribute it and/or modify it under
   the terms of the GNU Lesser General Public License as published by
   the Free Software Foundation, either version 3 of the License, or
   (at your option) any later version.
   
   xtb is distributed in the hope that it will be useful,
   but WITHOUT ANY WARRANTY; without even the implied warranty of
   MERCHANTABILITY or FITNESS FOR A PARTICULAR PURPOSE.  See the
   GNU Lesser General Public License for more details.
   
   Cite this work as:
   * C. Bannwarth, E. Caldeweyher, S. Ehlert, A. Hansen, P. Pracht,
     J. Seibert, S. Spicher, S. Grimme, WIREs Comput. Mol. Sci., 2020, 11,
     e01493. DOI: 10.1002/wcms.1493
   
   for GFN2-xTB:
   * C. Bannwarth, S. Ehlert and S. Grimme., J. Chem. Theory Comput., 2019,
     15, 1652-1671. DOI: 10.1021/acs.jctc.8b01176
   for GFN1-xTB:
   * S. Grimme, C. Bannwarth, P. Shushkov, J. Chem. Theory Comput., 2017,
     13, 1989-2009. DOI: 10.1021/acs.jctc.7b00118
   for GFN0-xTB:
   * P. Pracht, E. Caldeweyher, S. Ehlert, S. Grimme, ChemRxiv, 2019, preprint.
     DOI: 10.26434/chemrxiv.8326202.v1
   for GFN-FF:
   * S. Spicher and S. Grimme, Angew. Chem. Int. Ed., 2020, 59, 15665-15673.
     DOI: 10.1002/anie.202004239
   
   for ALPB and GBSA implicit solvation:
   * S. Ehlert, M. Stahn, S. Spicher, S. Grimme, J. Chem. Theory Comput.,
     2021, 17, 4250-4261. DOI: 10.1021/acs.jctc.1c00471
   
   for DFT-D4:
   * E. Caldeweyher, C. Bannwarth and S. Grimme, J. Chem. Phys., 2017,
     147, 034112. DOI: 10.1063/1.4993215
   * E. Caldeweyher, S. Ehlert, A. Hansen, H. Neugebauer, S. Spicher,
     C. Bannwarth and S. Grimme, J. Chem. Phys., 2019, 150, 154122.
     DOI: 10.1063/1.5090222
   * E. Caldeweyher, J.-M. Mewes, S. Ehlert and S. Grimme, Phys. Chem. Chem. Phys.
     2020, 22, 8499-8512. DOI: 10.1039/D0CP00502A
   
   for sTDA-xTB:
   * S. Grimme and C. Bannwarth, J. Chem. Phys., 2016, 145, 054103.
     DOI: 10.1063/1.4959605
   
   in the mass-spec context:
   * V. Asgeirsson, C. Bauer and S. Grimme, Chem. Sci., 2017, 8, 4879.
     DOI: 10.1039/c7sc00601b
   * J. Koopman and S. Grimme, ACS Omega 2019, 4, 12, 15120-15133.
     DOI: 10.1021/acsomega.9b02011
   
   for metadynamics refer to:
   * S. Grimme, J. Chem. Theory Comput., 2019, 155, 2847-2862
     DOI: 10.1021/acs.jctc.9b00143
   
   for SPH calculations refer to:
   * S. Spicher and S. Grimme, J. Chem. Theory Comput., 2021, 17, 1701-1714
     DOI: 10.1021/acs.jctc.0c01306
   
   with help from (in alphabetical order)
   P. Atkinson, C. Bannwarth, F. Bohle, G. Brandenburg, E. Caldeweyher
   M. Checinski, S. Dohm, S. Ehlert, S. Ehrlich, I. Gerasimov, C. Hölzer
   A. Katbashev, J. Koopman, C. Lavigne, S. Lehtola, F. März, M. Müller,
   F. Musil, H. Neugebauer, J. Pisarek, C. Plett, P. Pracht, F. Pultar,
   J. Seibert, P. Shushkov, S. Spicher, M. Stahn, M. Steiner, T. Strunk,
   J. Stückrath, T. Rose, and J. Unsleber
   
 * started run on 2026/04/17 at 12:14:41.602     

           -------------------------------------------------
          |                Calculation Setup                |
           -------------------------------------------------

          program call               : /usr/bin/xtb random_d1.70_010_m3_XTB.xyz --grad -c 0 -u 2 -P 1 --namespace random_d1.70_010_m3 --input random_d1.70_010_m3_XTB.input.tmp --acc 0.200000
          calculation namespace      : random_d1.70_010_m3
          coordinate file            : random_d1.70_010_m3_XTB.xyz
          omp threads                :                     1

   ID    Z sym.   atoms
    1    5 B      1-12

molecular fragmentation (1/2 indicates fragments):
111211212112
# atoms in fragment 1/2:     8     4
 fragment masses (1/2) :       86.49       43.24
CMA distance (Bohr)    :   4.276
constraining FC (au)   :  0.0500

           -------------------------------------------------
          |                 G F N 2 - x T B                 |
           -------------------------------------------------

        Reference                      10.1021/acs.jctc.8b01176
      * Hamiltonian:
        H0-scaling (s, p, d)           1.850000    2.230000    2.230000
        zeta-weighting                 0.500000
      * Dispersion:
        s8                             2.700000
        a1                             0.520000
        a2                             5.000000
        s9                             5.000000
      * Repulsion:
        kExp                           1.500000    1.000000
        rExp                           1.000000
      * Coulomb:
        alpha                          2.000000
        third order                    shell-resolved
        anisotropic                    true
        a3                             3.000000
        a5                             4.000000
        cn-shift                       1.200000
        cn-exp                         4.000000
        max-rad                        5.000000


          ...................................................
          :                      SETUP                      :
          :.................................................:
          :  # basis functions                  48          :
          :  # atomic orbitals                  48          :
          :  # shells                           24          :
          :  # electrons                        36          :
          :  max. iterations                   250          :
          :  Hamiltonian                  GFN2-xTB          :
          :  restarted?                      false          :
          :  GBSA solvation                  false          :
          :  PC potential                    false          :
          :  electronic temp.          300.0000000     K    :
          :  accuracy                    0.2000000          :
          :  -> integral cutoff          0.3198970E+02      :
          :  -> integral neglect         0.2000000E-08      :
          :  -> SCF convergence          0.2000000E-06 Eh   :
          :  -> wf. convergence          0.2000000E-04 e    :
          :  Broyden damping             0.4000000          :
          ...................................................

 iter      E             dE          RMSdq      gap      omega  full diag
   1    -13.4904875 -0.134905E+02  0.194E+01    0.04       0.0  T
   2     -6.4818955  0.700859E+01  0.180E+01    0.32       1.0  T
   3     18.6955030  0.251774E+02  0.292E+01    0.34       1.0  T
   4     -6.1086269 -0.248041E+02  0.176E+01    0.25       1.0  T
   5     -5.1266654  0.981962E+00  0.152E+01    0.35       1.0  T
   6     -5.4169314 -0.290266E+00  0.142E+01    0.34       1.0  T
   7    -12.0585280 -0.664160E+01  0.907E+00    0.17       1.0  T
   8    -11.9295821  0.128946E+00  0.974E+00    0.09       1.0  T
   9    -12.4845517 -0.554970E+00  0.807E+00    0.26       1.0  T
  10    -13.0477500 -0.563198E+00  0.708E+00    0.20       1.0  T
  11    -13.2396112 -0.191861E+00  0.606E+00    0.31       1.0  T
  12    -13.2722890 -0.326778E-01  0.598E+00    0.26       1.0  T
  13    -13.2304159  0.418731E-01  0.638E+00    0.24       1.0  T
  14    -13.2412685 -0.108526E-01  0.636E+00    0.22       1.0  T
  15    -13.1434486  0.978199E-01  0.609E+00    0.21       1.0  T
  16    -13.3975472 -0.254099E+00  0.473E+00    0.17       1.0  T
  17    -13.4634759 -0.659287E-01  0.447E+00    0.12       1.0  T
  18    -13.4468469  0.166290E-01  0.455E+00    0.12       1.0  T
  19    -13.4196375  0.272094E-01  0.462E+00    0.13       1.0  T
  20    -13.4232208 -0.358330E-02  0.470E+00    0.13       1.0  T
  21    -13.5092566 -0.860358E-01  0.383E+00    0.12       1.0  T
  22    -13.6363625 -0.127106E+00  0.227E+00    0.10       1.0  T
  23    -13.6294840  0.687844E-02  0.230E+00    0.10       1.0  T
  24    -13.6538854 -0.244013E-01  0.206E+00    0.09       1.0  T
  25    -13.6918682 -0.379828E-01  0.143E+00    0.08       1.0  T
  26    -13.7075743 -0.157062E-01  0.111E+00    0.08       1.0  T
  27    -13.7057568  0.181750E-02  0.114E+00    0.08       1.0  T
  28    -13.7096590 -0.390211E-02  0.945E-01    0.08       1.0  T
  29    -13.7154687 -0.580974E-02  0.605E-01    0.08       1.0  T
  30    -13.7152542  0.214461E-03  0.610E-01    0.08       1.0  T
  31    -13.7159285 -0.674299E-03  0.467E-01    0.08       1.0  T
  32    -13.7161033 -0.174791E-03  0.423E-01    0.08       1.0  T
  33    -13.7163286 -0.225298E-03  0.273E-01    0.08       1.0  T
  34    -13.7154951  0.833565E-03  0.343E-01    0.08       1.0  T
  35    -13.7169723 -0.147721E-02  0.199E-01    0.08       1.0  T
  36    -13.7170452 -0.729159E-04  0.133E-01    0.08       1.0  T
  37    -13.7171469 -0.101693E-03  0.107E-01    0.08       1.0  T
  38    -13.7172251 -0.782072E-04  0.410E-02    0.08       1.0  T
  39    -13.7172181  0.696485E-05  0.460E-02    0.08       1.0  T
  40    -13.7172244 -0.632143E-05  0.331E-02    0.08       1.0  T
  41    -13.7172268 -0.236273E-05  0.262E-02    0.08       1.1  T
  42    -13.7172305 -0.372461E-05  0.165E-02    0.08       1.8  T
  43    -13.7172317 -0.115420E-05  0.812E-03    0.08       3.6  T
  44    -13.7172315  0.205639E-06  0.593E-03    0.08       4.9  T
  45    -13.7172315 -0.664346E-07  0.455E-03    0.08       6.3  T
  46    -13.7172317 -0.173181E-06  0.299E-03    0.08       9.7  T
  47    -13.7172318 -0.118187E-06  0.166E-03    0.08      17.4  T
  48    -13.7172319 -0.258892E-07  0.119E-03    0.08      24.3  T
  49    -13.7172319 -0.583431E-08  0.930E-04    0.08      31.0  T
  50    -13.7172319 -0.143519E-07  0.369E-04    0.08      78.2  T
  51    -13.7172319 -0.108250E-08  0.224E-04    0.08     128.7  T
  52    -13.7172319 -0.244935E-09  0.153E-04    0.08     189.2  T
  53    -13.7172319 -0.445404E-10  0.107E-04    0.08     270.7  T

   *** convergence criteria satisfied after 53 iterations ***

         #    Occupation            Energy/Eh            Energy/eV
      -------------------------------------------------------------
         1        2.0000           -0.4107178             -11.1762
       ...           ...                  ...                  ...
        13        2.0000           -0.2617465              -7.1225
        14        2.0000           -0.2591874              -7.0528
        15        2.0000           -0.2536811              -6.9030
        16        2.0000           -0.2500720              -6.8048
        17        1.7153           -0.2394101              -6.5147
        18        1.2847           -0.2376596              -6.4670
        19        0.8315           -0.2270281              -6.1777 (HOMO)
        20        0.1677           -0.2239895              -6.0951 (LUMO)
        21        0.0009           -0.2187995              -5.9538
        22        0.0000           -0.2134346              -5.8079
        23                         -0.2090491              -5.6885
        24                         -0.1957704              -5.3272
       ...                                ...                  ...
        48                          1.4285465              38.8727
      -------------------------------------------------------------
                  HL-Gap            0.0030386 Eh            0.0827 eV
             Fermi-level           -0.2320233 Eh           -6.3137 eV

 transition dipole moment (au) for excitation:          18          19
     X       Y       Z   
   1.0215   0.1592  -0.0221  total (au/Debye):    1.034   2.628
 dE (eV)             :    0.289
 oscillator strength :  0.10719E-01

 SCC (total)                   0 d,  0 h,  0 min,  0.069 sec
 SCC setup                      ...        0 min,  0.000 sec (  0.219%)
 Dispersion                     ...        0 min,  0.000 sec (  0.207%)
 classical contributions        ...        0 min,  0.000 sec (  0.059%)
 integral evaluation            ...        0 min,  0.003 sec (  4.047%)
 iterations                     ...        0 min,  0.056 sec ( 81.351%)
 molecular gradient             ...        0 min,  0.006 sec (  8.003%)
 printout                       ...        0 min,  0.004 sec (  6.082%)

         :::::::::::::::::::::::::::::::::::::::::::::::::::::
         ::                     SUMMARY                     ::
         :::::::::::::::::::::::::::::::::::::::::::::::::::::
         :: total energy             -13.497351679994 Eh    ::
         :: gradient norm              0.306288756714 Eh/a0 ::
         :: HOMO-LUMO gap              0.082683965272 eV    ::
         ::.................................................::
         :: SCC energy               -13.717231885272 Eh    ::
         :: -> isotropic ES            0.079210984929 Eh    ::
         :: -> anisotropic ES          0.005357744288 Eh    ::
         :: -> anisotropic XC         -0.032349978837 Eh    ::
         :: -> dispersion             -0.020580976768 Eh    ::
         :: repulsion energy           0.219772394837 Eh    ::
         :: add. restraining           0.000000000000 Eh    ::
         :: total charge               0.000000000000 e     ::
         :::::::::::::::::::::::::::::::::::::::::::::::::::::


Property printout bound to 'properties.out'

           -------------------------------------------------
          | TOTAL ENERGY              -13.497351679994 Eh   |
          | GRADIENT NORM               0.306288756714 Eh/α |
          | HOMO-LUMO GAP               0.082683965272 eV   |
           -------------------------------------------------

------------------------------------------------------------------------
 * finished run on 2026/04/17 at 12:14:41.684     
------------------------------------------------------------------------
 total:
 * wall-time:     0 d,  0 h,  0 min,  0.083 sec
 *  cpu-time:     0 d,  0 h,  0 min,  0.082 sec
 * ratio c/w:     1.000 speedup
 SCF:
 * wall-time:     0 d,  0 h,  0 min,  0.070 sec
 *  cpu-time:     0 d,  0 h,  0 min,  0.070 sec
 * ratio c/w:     1.000 speedup


-------------------------   --------------------
FINAL SINGLE POINT ENERGY       -13.497351679990
-------------------------   --------------------


-------------
DIPOLE MOMENT
-------------
                                X             Y             Z
Total Dipole Moment    :     -0.36700       0.38600      -0.09200
                        -----------------------------------------
Magnitude (a.u.)       :      0.54051
Magnitude (Debye)      :      1.37386


------------------
CARTESIAN GRADIENT
------------------

   1   B   :    0.014042953    0.070265591    0.054069209
   2   B   :    0.000442531   -0.028068491   -0.007399099
   3   B   :   -0.052430604   -0.010382354   -0.064784082
   4   B   :   -0.028220869    0.061138834    0.044172248
   5   B   :    0.011314229   -0.085229955    0.034265516
   6   B   :    0.018637339   -0.070033956   -0.050635823
   7   B   :    0.049637504   -0.041528198   -0.030509473
   8   B   :   -0.077681079    0.072394705   -0.057659499
   9   B   :   -0.031667364   -0.040291596   -0.026708130
  10   B   :   -0.070602220    0.056982620    0.004479885
  11   B   :    0.064941791   -0.014126073    0.089328998
  12   B   :    0.101585790    0.028878875    0.011380249

Difference to translation invariance:
           :   -0.0000000000    0.0000000000    0.0000000000

Difference to rotation invariance:
           :   -0.0000000731    0.0000000515    0.0000000069

Norm of the Cartesian gradient     ...    0.3062887567
RMS gradient                       ...    0.0510481261
MAX gradient                       ...    0.1015857905
------------------------------------------------------------------------------
                         ORCA GEOMETRY RELAXATION STEP
------------------------------------------------------------------------------

Reading the OPT-File                    .... done
Getting information on internals        .... done
Copying old internal coords+grads       .... done
Making the new internal coordinates     .... (2022 redundants) done
Validating the new internal coordinates .... (2022 redundants) done
Calculating the B-matrix                .... done
Calculating the G,G- and P matrices     .... done
Transforming gradient to internals      .... done
Projecting the internal gradient        .... done
Number of atoms                         ....  12
Number of internal coordinates          .... 141
Current Energy                          ....   -13.497351680 Eh
Current gradient norm                   ....     0.306288757 Eh/bohr
Maximum allowed component of the step   ....  0.300
Current trust radius                    ....  0.300
Evaluating the initial hessian          ....  (Almloef) done
Projecting the Hessian                  .... done
Forming the augmented Hessian           .... done
Diagonalizing the augmented Hessian     .... done
Last element of RFO vector              ....  0.792655808
Lowest eigenvalues of augmented Hessian:
 -0.126106989  0.017463808  0.019658397  0.020760882  0.023933671
Length of the computed step             ....  0.769147702
Warning: the length of the step is outside the trust region - taking restricted step instead
The input lambda is                     ....     0.016120
   iter:   5  x=    0.003843  g= 7583.393518 f(x)=    42.134433
   iter:  10  x=   -0.149555  g=   14.154400 f(x)=     0.868079
   iter:  15  x=   -0.443222  g=    0.326340 f(x)=     0.001011
The output lambda is                    ....    -0.443249 (18 iterations)
The final length of the internal step   ....  0.300000000
Converting the step to Cartesian space:
 Initial RMS(Int)=    0.0252645576
Transforming coordinates:
 Iter   0:  RMS(Cart)=    0.0486681448 RMS(Int)=    0.0252524735
done
Storing new coordinates                 .... done

                                .--------------------.
          ----------------------|Geometry convergence|-------------------------
          Item                value                   Tolerance       Converged
          ---------------------------------------------------------------------
          RMS gradient        0.0163474033            0.0000300000      NO
          MAX gradient        0.0768282238            0.0001000000      NO
          RMS step            0.0252645576            0.0006000000      NO
          MAX step            0.0952230449            0.0010000000      NO
          -------------------------------------------------------------------------
          ........................................................
          Max(Bonds)      0.0504      Max(Angles)    1.41
          Max(Dihed)        1.59      Max(Improp)    0.00
          ---------------------------------------------------------------------

The optimization has not yet converged - more geometry cycles are needed


    ---------------------------------------------------------------------------
                         Redundant Internal Coordinates
                            (Angstroem and degrees)

        Definition                    Value    dE/dq     Step     New-Value
    ----------------------------------------------------------------------------
     1. B(B   1,B   0)                1.4098 -0.028609  0.0124    1.4222   
     2. B(B   2,B   0)                1.9919  0.049055 -0.0462    1.9457   
     3. B(B   6,B   5)                2.7643  0.000865 -0.0100    2.7543   
     4. B(B   6,B   0)                2.1625  0.042534 -0.0485    2.1140   
     5. B(B   7,B   5)                2.2034  0.023638 -0.0296    2.1738   
     6. B(B   7,B   6)                2.4668  0.041077 -0.0427    2.4241   
     7. B(B   8,B   5)                2.4187  0.028343 -0.0324    2.3863   
     8. B(B   8,B   3)                1.5954  0.076828 -0.0485    1.5468   
     9. B(B   9,B   4)                1.3834 -0.062203  0.0294    1.4128   
    10. B(B   9,B   2)                2.0507  0.011031 -0.0152    2.0355   
    11. B(B  10,B   4)                1.9752  0.016201 -0.0206    1.9547   
    12. B(B  10,B   2)                1.4415 -0.046872  0.0265    1.4680   
    13. B(B  10,B   9)                1.8908  0.020247 -0.0212    1.8696   
    14. B(B  10,B   5)                2.0809  0.050652 -0.0504    2.0305   
    15. B(B  10,B   8)                2.8451  0.028000 -0.0343    2.8108   
    16. B(B  11,B   5)                2.2350  0.025107 -0.0309    2.2041   
    17. B(B  11,B   7)                1.3952 -0.059778  0.0295    1.4247   
    18. B(B  11,B   8)                2.2101  0.043157 -0.0446    2.1654   
    19. A(B   1,B   0,B   2)          120.69 -0.005506    0.36    121.05   
    20. A(B   2,B   0,B   6)           91.62  0.005708   -0.30     91.32   
    21. A(B   1,B   0,B   6)          109.57  0.005115   -0.38    109.18   
    22. A(B   9,B   2,B  10)           62.74  0.009360   -0.70     62.03   
    23. A(B   0,B   2,B  10)          109.08 -0.008451    0.70    109.78   
    24. A(B   0,B   2,B   9)          144.31 -0.006126    0.26    144.57   
    25. A(B   9,B   4,B  10)           65.80  0.010861   -0.64     65.16   
    26. A(B   8,B   5,B  10)           78.04 -0.006092    0.54     78.58   
    27. A(B   7,B   5,B  11)           36.63 -0.018875    1.32     37.96   
    28. A(B   6,B   5,B  11)           94.04 -0.010508    0.60     94.64   
    29. A(B   7,B   5,B  10)          103.20  0.010432   -0.88    102.33   
    30. A(B   8,B   5,B  11)           56.54  0.004590   -0.41     56.13   
    31. A(B  10,B   5,B  11)          120.14 -0.000599   -0.08    120.06   
    32. A(B   6,B   5,B   8)          124.83 -0.004539    0.22    125.05   
    33. A(B   6,B   5,B  10)           80.97  0.009075   -0.77     80.20   
    34. A(B   6,B   5,B   7)           58.24  0.008403   -0.74     57.50   
    35. A(B   7,B   5,B   8)           77.99 -0.009832    0.69     78.68   
    36. A(B   5,B   6,B   7)           49.42  0.002413   -0.28     49.14   
    37. A(B   0,B   6,B   7)          100.69 -0.008891    0.78    101.47   
    38. A(B   0,B   6,B   5)           98.57 -0.011864    0.91     99.48   
    39. A(B   5,B   7,B   6)           72.33 -0.010816    1.02     73.36   
    40. A(B   6,B   7,B  11)          142.71 -0.001280    0.38    143.09   
    41. A(B   5,B   7,B  11)           72.91  0.010521   -0.74     72.17   
    42. A(B   3,B   8,B  11)          125.00 -0.003360    0.32    125.32   
    43. A(B  10,B   8,B  11)           94.64  0.004227   -0.51     94.13   
    44. A(B   3,B   8,B  10)           96.02  0.008869   -0.95     95.07   
    45. A(B   5,B   8,B  11)           57.53 -0.002130    0.15     57.68   
    46. A(B   5,B   8,B  10)           45.69  0.006537   -0.60     45.09   
    47. A(B   3,B   8,B   5)          137.77  0.012729   -1.26    136.51   
    48. A(B   2,B   9,B   4)           98.40 -0.004588    0.41     98.81   
    49. A(B   4,B   9,B  10)           72.34  0.011165   -0.77     71.57   
    50. A(B   2,B   9,B  10)           42.66 -0.016635    1.23     43.89   
    51. A(B   2,B  10,B   4)           99.80 -0.010718    0.69    100.49   
    52. A(B   5,B  10,B   9)          150.65 -0.000591    0.23    150.87   
    53. A(B   4,B  10,B   9)           41.86 -0.022025    1.41     43.27   
    54. A(B   2,B  10,B   9)           74.60  0.007274   -0.53     74.07   
    55. A(B   5,B  10,B   8)           56.27 -0.000445    0.06     56.33   
    56. A(B   4,B  10,B   8)           81.39  0.015530   -1.15     80.23   
    57. A(B   2,B  10,B   8)          158.90 -0.000405   -0.02    158.87   
    58. A(B   4,B  10,B   5)          136.65  0.013798   -0.99    135.66   
    59. A(B   2,B  10,B   5)          122.92 -0.001660    0.17    123.09   
    60. A(B   8,B  10,B   9)          116.60 -0.006404    0.34    116.94   
    61. A(B   7,B  11,B   8)          105.58  0.001111    0.10    105.69   
    62. A(B   5,B  11,B   7)           70.45  0.008354   -0.58     69.87   
    63. A(B   5,B  11,B   8)           65.93 -0.002460    0.26     66.19   
    64. D(B   9,B   2,B   0,B   6)   -131.89 -0.013676    1.01   -130.88   
    65. D(B  10,B   2,B   0,B   1)     51.65  0.000172    0.17     51.81   
    66. D(B  10,B   2,B   0,B   6)    -62.34 -0.008119    0.72    -61.61   
    67. D(B   9,B   2,B   0,B   1)    -17.91 -0.005385    0.46    -17.45   
    68. D(B   7,B   6,B   5,B  11)      8.16 -0.002085    0.06      8.22   
    69. D(B   0,B   6,B   5,B   7)     96.77 -0.001574    0.24     97.01   
    70. D(B   5,B   6,B   0,B   2)     37.04  0.000507   -0.19     36.85   
    71. D(B   7,B   6,B   0,B   1)    -36.33  0.003306   -0.49    -36.82   
    72. D(B   0,B   6,B   5,B  11)    104.94 -0.003659    0.30    105.24   
    73. D(B   7,B   6,B   5,B  10)   -111.73 -0.002888    0.22   -111.52   
    74. D(B   0,B   6,B   5,B   8)     53.56 -0.002991    0.44     53.99   
    75. D(B   0,B   6,B   5,B  10)    -14.96 -0.004462    0.46    -14.50   
    76. D(B   7,B   6,B   0,B   2)     87.17  0.001195   -0.33     86.84   
    77. D(B   5,B   6,B   0,B   1)    -86.46  0.002618   -0.34    -86.81   
    78. D(B  11,B   7,B   5,B   8)    -48.80 -0.007579    0.70    -48.11   
    79. D(B   5,B   7,B   6,B   0)    -92.18  0.007796   -0.50    -92.68   
    80. D(B  11,B   7,B   6,B   5)    -22.00 -0.005312    0.46    -21.54   
    81. D(B  11,B   7,B   6,B   0)   -114.18  0.002484   -0.05   -114.22   
    82. D(B   6,B   7,B   5,B   8)    144.93 -0.004745    0.35    145.28   
    83. D(B   6,B   7,B   5,B  11)   -166.27  0.002834   -0.34   -166.61   
    84. D(B  11,B   7,B   5,B  10)   -123.29  0.004873   -0.34   -123.63   
    85. D(B   6,B   7,B   5,B  10)     70.44  0.007707   -0.68     69.76   
    86. D(B  11,B   7,B   5,B   6)    166.27 -0.002834    0.34    166.61   
    87. D(B  11,B   8,B   5,B  10)    139.04  0.001682   -0.36    138.68   
    88. D(B   3,B   8,B   5,B  10)     30.96  0.012756   -1.37     29.58   
    89. D(B   3,B   8,B   5,B   7)    -75.52 -0.002836   -0.10    -75.62   
    90. D(B   3,B   8,B   5,B  11)   -108.09  0.011074   -1.01   -109.10   
    91. D(B  11,B   8,B   5,B   6)     69.09 -0.007391    0.31     69.40   
    92. D(B   3,B   8,B   5,B   6)    -38.99  0.003683   -0.70    -39.69   
    93. D(B  11,B   8,B   5,B   7)     32.56 -0.013910    0.92     33.48   
    94. D(B   4,B   9,B   2,B   0)     32.80 -0.007841    0.83     33.63   
    95. D(B   2,B   9,B   4,B  10)     34.19 -0.009517    0.69     34.88   
    96. D(B  10,B   9,B   2,B   0)     85.01  0.001957    0.11     85.11   
    97. D(B   4,B   9,B   2,B  10)    -52.20 -0.009798    0.72    -51.48   
    98. D(B   5,B  10,B   9,B   4)   -103.81  0.004054    0.10   -103.70   
    99. D(B   5,B  10,B   9,B   2)    131.32  0.010828   -0.44    130.88   
   100. D(B   4,B  10,B   9,B   2)   -124.88  0.006775   -0.54   -125.42   
   101. D(B   5,B  10,B   8,B   3)   -159.66  0.003032   -0.37   -160.03   
   102. D(B   4,B  10,B   8,B   5)   -170.22  0.004761   -0.42   -170.64   
   103. D(B   4,B  10,B   8,B  11)    156.08  0.006728   -0.73    155.35   
   104. D(B   2,B  10,B   8,B   5)     94.88 -0.005620    0.64     95.52   
   105. D(B   2,B  10,B   8,B  11)     61.18 -0.003653    0.33     61.51   
   106. D(B   2,B  10,B   8,B   3)    -64.78 -0.002588    0.27    -64.51   
   107. D(B   4,B  10,B   5,B   8)     14.16  0.011250   -0.92     13.24   
   108. D(B   4,B  10,B   5,B  11)     53.38  0.011860   -0.84     52.54   
   109. D(B   4,B  10,B   5,B   7)     88.60 -0.004048    0.23     88.83   
   110. D(B   4,B  10,B   5,B   6)    142.83  0.004968   -0.58    142.25   
   111. D(B   2,B  10,B   5,B   8)   -154.70  0.000215    0.06   -154.64   
   112. D(B   2,B  10,B   5,B  11)   -115.47  0.000825    0.13   -115.34   
   113. D(B   2,B  10,B   5,B   7)    -80.25 -0.015083    1.20    -79.05   
   114. D(B   2,B  10,B   5,B   6)    -26.03 -0.006067    0.40    -25.63   
   115. D(B   8,B  10,B   4,B   9)    147.97 -0.007221    0.65    148.61   
   116. D(B   5,B  10,B   4,B   9)    136.09 -0.016040    1.37    137.46   
   117. D(B   4,B  10,B   8,B   3)     30.12  0.007793   -0.79     29.33   
   118. D(B   2,B  10,B   4,B   9)    -53.38 -0.006560    0.54    -52.84   
   119. D(B   8,B  10,B   2,B   0)    -16.85  0.005367   -0.63    -17.48   
   120. D(B   9,B  10,B   2,B   0)   -142.05  0.004504   -0.09   -142.13   
   121. D(B   2,B  10,B   9,B   4)    124.88 -0.006775    0.54    125.42   
   122. D(B   4,B  10,B   2,B   9)     33.75 -0.014506    0.88     34.63   
   123. D(B   4,B  10,B   2,B   0)   -108.30 -0.010001    0.79   -107.50   
   124. D(B   5,B  10,B   2,B   9)   -153.99 -0.004657    0.05   -153.94   
   125. D(B   8,B  10,B   9,B   2)   -160.79 -0.000964    0.21   -160.57   
   126. D(B   8,B  10,B   9,B   4)    -35.91 -0.007739    0.75    -35.16   
   127. D(B   5,B  10,B   2,B   0)     63.97 -0.000153   -0.04     63.93   
   128. D(B   5,B  11,B   8,B  10)     28.07  0.002553   -0.11     27.96   
   129. D(B   5,B  11,B   8,B   3)    128.75  0.015901   -1.59    127.15   
   130. D(B   7,B  11,B   8,B  10)    -31.60 -0.005624    0.52    -31.07   
   131. D(B   7,B  11,B   8,B   3)     69.08  0.007724   -0.96     68.12   
   132. D(B   8,B  11,B   7,B   6)     78.67  0.003702   -0.31     78.36   
   133. D(B   8,B  11,B   7,B   5)     56.75  0.001097   -0.07     56.67   
   134. D(B   5,B  11,B   7,B   6)     21.92  0.002604   -0.23     21.69   
   135. D(B   8,B  11,B   5,B   7)   -118.09  0.002827   -0.36   -118.45   
   136. D(B   8,B  11,B   5,B   6)   -129.77 -0.000491    0.01   -129.75   
   137. D(B   7,B  11,B   8,B   5)    -59.67 -0.008177    0.63    -59.03   
   138. D(B   8,B  11,B   5,B  10)    -47.86  0.003953   -0.53    -48.40   
   139. D(B   7,B  11,B   5,B   8)    118.09 -0.002827    0.36    118.45   
   140. D(B   7,B  11,B   5,B   6)    -11.68 -0.003318    0.38    -11.30   
   141. D(B   7,B  11,B   5,B  10)     70.23  0.001126   -0.17     70.06   
    ----------------------------------------------------------------------------

Geometry step timings:
Preparation and reading OPT file:      0.000 s ( 0.956 %)
Internal coordinates            :      0.000 s ( 0.793 %)
B/P matrices and projection     :      0.001 s (17.279 %)
Hessian update/contruction      :      0.001 s (13.516 %)
Making the step                 :      0.003 s (42.915 %)
Converting the step to Cartesian:      0.000 s ( 2.718 %)
Storing new data                :      0.000 s ( 0.818 %)
Checking convergence            :      0.000 s ( 1.221 %)
Final printing                  :      0.002 s (19.746 %)
Total time                      :      0.008 s

Time for energy+gradient        :      0.094 s
Time for complete geometry iter :      0.103 s

         *************************************************************
         *                GEOMETRY OPTIMIZATION CYCLE   2            *
         *************************************************************
---------------------------------
CARTESIAN COORDINATES (ANGSTROEM)
---------------------------------
  B     1.950576   -0.318081    1.517872
  B     1.709117    1.046884    1.836104
  B     0.478122   -1.556586    1.228395
  B    -2.311978    1.728676   -0.189017
  B    -1.956876   -0.526609    1.403799
  B     0.054908   -0.636269   -1.688241
  B     2.537481   -0.465895   -0.507615
  B     1.150643    1.235213   -1.536848
  B    -1.723601    0.922873   -1.371020
  B    -1.513065   -1.862815    1.519467
  B    -0.455572   -0.996832    0.243740
  B     0.080244    1.429440   -2.456636

----------------------------
CARTESIAN COORDINATES (A.U.)
----------------------------
  NO LB    ZA    FRAG    MASS        X           Y           Z
   0 B   5.0000    0    10.810    3.686054   -0.601087    2.868363
   1 B   5.0000    0    10.810    3.229763    1.978323    3.469733
   2 B   5.0000    0    10.810    0.903519   -2.941521    2.321330
   3 B   5.0000    0    10.810   -4.369004    3.266724   -0.357190
   4 B   5.0000    0    10.810   -3.697959   -0.995148    2.652796
   5 B   5.0000    0    10.810    0.103760   -1.202373   -3.190313
   6 B   5.0000    0    10.810    4.795145   -0.880413   -0.959254
   7 B   5.0000    0    10.810    2.174401    2.334214   -2.904222
   8 B   5.0000    0    10.810   -3.257135    1.743977   -2.590852
   9 B   5.0000    0    10.810   -2.859279   -3.520209    2.871377
  10 B   5.0000    0    10.810   -0.860906   -1.883739    0.460602
  11 B   5.0000    0    10.810    0.151640    2.701251   -4.642369

      -----------------------------------------------------------      
     |                   =====================                   |     
     |                           x T B                           |     
     |                   =====================                   |     
     |                         S. Grimme                         |     
     |          Mulliken Center for Theoretical Chemistry        |     
     |                    University of Bonn                     |     
      -----------------------------------------------------------      

   * xtb version 6.6.1 (unknown) compiled by 'builduser@buildhost' on 2023-08-07

   xtb is free software: you can redistribute it and/or modify it under
   the terms of the GNU Lesser General Public License as published by
   the Free Software Foundation, either version 3 of the License, or
   (at your option) any later version.
   
   xtb is distributed in the hope that it will be useful,
   but WITHOUT ANY WARRANTY; without even the implied warranty of
   MERCHANTABILITY or FITNESS FOR A PARTICULAR PURPOSE.  See the
   GNU Lesser General Public License for more details.
   
   Cite this work as:
   * C. Bannwarth, E. Caldeweyher, S. Ehlert, A. Hansen, P. Pracht,
     J. Seibert, S. Spicher, S. Grimme, WIREs Comput. Mol. Sci., 2020, 11,
     e01493. DOI: 10.1002/wcms.1493
   
   for GFN2-xTB:
   * C. Bannwarth, S. Ehlert and S. Grimme., J. Chem. Theory Comput., 2019,
     15, 1652-1671. DOI: 10.1021/acs.jctc.8b01176
   for GFN1-xTB:
   * S. Grimme, C. Bannwarth, P. Shushkov, J. Chem. Theory Comput., 2017,
     13, 1989-2009. DOI: 10.1021/acs.jctc.7b00118
   for GFN0-xTB:
   * P. Pracht, E. Caldeweyher, S. Ehlert, S. Grimme, ChemRxiv, 2019, preprint.
     DOI: 10.26434/chemrxiv.8326202.v1
   for GFN-FF:
   * S. Spicher and S. Grimme, Angew. Chem. Int. Ed., 2020, 59, 15665-15673.
     DOI: 10.1002/anie.202004239
   
   for ALPB and GBSA implicit solvation:
   * S. Ehlert, M. Stahn, S. Spicher, S. Grimme, J. Chem. Theory Comput.,
     2021, 17, 4250-4261. DOI: 10.1021/acs.jctc.1c00471
   
   for DFT-D4:
   * E. Caldeweyher, C. Bannwarth and S. Grimme, J. Chem. Phys., 2017,
     147, 034112. DOI: 10.1063/1.4993215
   * E. Caldeweyher, S. Ehlert, A. Hansen, H. Neugebauer, S. Spicher,
     C. Bannwarth and S. Grimme, J. Chem. Phys., 2019, 150, 154122.
     DOI: 10.1063/1.5090222
   * E. Caldeweyher, J.-M. Mewes, S. Ehlert and S. Grimme, Phys. Chem. Chem. Phys.
     2020, 22, 8499-8512. DOI: 10.1039/D0CP00502A
   
   for sTDA-xTB:
   * S. Grimme and C. Bannwarth, J. Chem. Phys., 2016, 145, 054103.
     DOI: 10.1063/1.4959605
   
   in the mass-spec context:
   * V. Asgeirsson, C. Bauer and S. Grimme, Chem. Sci., 2017, 8, 4879.
     DOI: 10.1039/c7sc00601b
   * J. Koopman and S. Grimme, ACS Omega 2019, 4, 12, 15120-15133.
     DOI: 10.1021/acsomega.9b02011
   
   for metadynamics refer to:
   * S. Grimme, J. Chem. Theory Comput., 2019, 155, 2847-2862
     DOI: 10.1021/acs.jctc.9b00143
   
   for SPH calculations refer to:
   * S. Spicher and S. Grimme, J. Chem. Theory Comput., 2021, 17, 1701-1714
     DOI: 10.1021/acs.jctc.0c01306
   
   with help from (in alphabetical order)
   P. Atkinson, C. Bannwarth, F. Bohle, G. Brandenburg, E. Caldeweyher
   M. Checinski, S. Dohm, S. Ehlert, S. Ehrlich, I. Gerasimov, C. Hölzer
   A. Katbashev, J. Koopman, C. Lavigne, S. Lehtola, F. März, M. Müller,
   F. Musil, H. Neugebauer, J. Pisarek, C. Plett, P. Pracht, F. Pultar,
   J. Seibert, P. Shushkov, S. Spicher, M. Stahn, M. Steiner, T. Strunk,
   J. Stückrath, T. Rose, and J. Unsleber
   
 * started run on 2026/04/17 at 12:14:41.706     

           -------------------------------------------------
          |                Calculation Setup                |
           -------------------------------------------------

          program call               : /usr/bin/xtb random_d1.70_010_m3_XTB.xyz --grad -c 0 -u 2 -P 1 --namespace random_d1.70_010_m3 --input random_d1.70_010_m3_XTB.input.tmp --acc 0.200000
          calculation namespace      : random_d1.70_010_m3
          coordinate file            : random_d1.70_010_m3_XTB.xyz
          omp threads                :                     1

   ID    Z sym.   atoms
    1    5 B      1-12

molecular fragmentation (1/2 indicates fragments):
111211212112
# atoms in fragment 1/2:     8     4
 fragment masses (1/2) :       86.49       43.24
CMA distance (Bohr)    :   4.225
constraining FC (au)   :  0.0500

           -------------------------------------------------
          |                 G F N 2 - x T B                 |
           -------------------------------------------------

        Reference                      10.1021/acs.jctc.8b01176
      * Hamiltonian:
        H0-scaling (s, p, d)           1.850000    2.230000    2.230000
        zeta-weighting                 0.500000
      * Dispersion:
        s8                             2.700000
        a1                             0.520000
        a2                             5.000000
        s9                             5.000000
      * Repulsion:
        kExp                           1.500000    1.000000
        rExp                           1.000000
      * Coulomb:
        alpha                          2.000000
        third order                    shell-resolved
        anisotropic                    true
        a3                             3.000000
        a5                             4.000000
        cn-shift                       1.200000
        cn-exp                         4.000000
        max-rad                        5.000000

q/qsh data taken from xtbrestart
CAMM data taken from xtbrestart

          ...................................................
          :                      SETUP                      :
          :.................................................:
          :  # basis functions                  48          :
          :  # atomic orbitals                  48          :
          :  # shells                           24          :
          :  # electrons                        36          :
          :  max. iterations                   250          :
          :  Hamiltonian                  GFN2-xTB          :
          :  restarted?                       true          :
          :  GBSA solvation                  false          :
          :  PC potential                    false          :
          :  electronic temp.          300.0000000     K    :
          :  accuracy                    0.2000000          :
          :  -> integral cutoff          0.3198970E+02      :
          :  -> integral neglect         0.2000000E-08      :
          :  -> SCF convergence          0.2000000E-06 Eh   :
          :  -> wf. convergence          0.2000000E-04 e    :
          :  Broyden damping             0.4000000          :
          ...................................................

 iter      E             dE          RMSdq      gap      omega  full diag
   1    -13.7427700 -0.137428E+02  0.135E+00    0.11       0.0  T
   2    -13.6993069  0.434631E-01  0.157E+00    0.09       1.0  T
   3    -13.5143850  0.184922E+00  0.353E+00    0.18       1.0  T
   4    -13.2289353  0.285450E+00  0.398E+00    0.17       1.0  T
   5    -13.6226620 -0.393727E+00  0.236E+00    0.17       1.0  T
   6    -13.7190843 -0.964223E-01  0.919E-01    0.11       1.0  T
   7    -13.7169870  0.209739E-02  0.119E+00    0.11       1.0  T
   8    -13.7342455 -0.172585E-01  0.741E-01    0.12       1.0  T
   9    -13.7347276 -0.482131E-03  0.712E-01    0.11       1.0  T
  10    -13.7353875 -0.659852E-03  0.675E-01    0.12       1.0  T
  11    -13.7354153 -0.278171E-04  0.659E-01    0.12       1.0  T
  12    -13.7389210 -0.350573E-02  0.558E-01    0.12       1.0  T
  13    -13.7407955 -0.187443E-02  0.453E-01    0.12       1.0  T
  14    -13.7440893 -0.329385E-02  0.148E-01    0.11       1.0  T
  15    -13.7441524 -0.630396E-04  0.125E-01    0.11       1.0  T
  16    -13.7441480  0.437177E-05  0.119E-01    0.11       1.0  T
  17    -13.7442210 -0.730421E-04  0.927E-02    0.11       1.0  T
  18    -13.7442902 -0.691903E-04  0.545E-02    0.11       1.0  T
  19    -13.7443004 -0.102217E-04  0.455E-02    0.11       1.0  T
  20    -13.7443218 -0.213046E-04  0.272E-02    0.11       1.1  T
  21    -13.7443312 -0.946226E-05  0.158E-02    0.11       1.8  T
  22    -13.7443343 -0.312478E-05  0.110E-02    0.11       2.6  T
  23    -13.7443345 -0.129335E-06  0.757E-03    0.11       3.8  T
  24    -13.7443344  0.116231E-06  0.405E-03    0.11       7.1  T
  25    -13.7443346 -0.204563E-06  0.122E-03    0.11      23.6  T
  26    -13.7443346 -0.282731E-07  0.449E-04    0.11      64.3  T
  27    -13.7443346 -0.115803E-08  0.177E-04    0.11     162.7  T
  28    -13.7443346 -0.434639E-10  0.132E-04    0.11     218.8  T

   *** convergence criteria satisfied after 28 iterations ***

         #    Occupation            Energy/Eh            Energy/eV
      -------------------------------------------------------------
         1        2.0000           -0.4094925             -11.1429
       ...           ...                  ...                  ...
        13        2.0000           -0.2608535              -7.0982
        14        2.0000           -0.2586794              -7.0390
        15        2.0000           -0.2538321              -6.9071
        16        2.0000           -0.2499294              -6.8009
        17        1.8216           -0.2393351              -6.5126
        18        1.1784           -0.2364330              -6.4337
        19        0.8953           -0.2266826              -6.1683 (HOMO)
        20        0.1045           -0.2226026              -6.0573 (LUMO)
        21        0.0002           -0.2164588              -5.8901
        22        0.0000           -0.2124290              -5.7805
        23                         -0.2074402              -5.6447
        24                         -0.1916251              -5.2144
       ...                                ...                  ...
        48                          1.2747677              34.6882
      -------------------------------------------------------------
                  HL-Gap            0.0040800 Eh            0.1110 eV
             Fermi-level           -0.2312638 Eh           -6.2930 eV

 transition dipole moment (au) for excitation:          18          19
     X       Y       Z   
   0.6876   0.2191  -0.1200  total (au/Debye):    0.732   1.860
 dE (eV)             :    0.265
 oscillator strength :  0.49200E-02

 SCC (total)                   0 d,  0 h,  0 min,  0.038 sec
 SCC setup                      ...        0 min,  0.000 sec (  0.410%)
 Dispersion                     ...        0 min,  0.000 sec (  0.274%)
 classical contributions        ...        0 min,  0.000 sec (  0.104%)
 integral evaluation            ...        0 min,  0.003 sec (  7.012%)
 iterations                     ...        0 min,  0.025 sec ( 66.098%)
 molecular gradient             ...        0 min,  0.006 sec ( 14.918%)
 printout                       ...        0 min,  0.004 sec ( 11.111%)

         :::::::::::::::::::::::::::::::::::::::::::::::::::::
         ::                     SUMMARY                     ::
         :::::::::::::::::::::::::::::::::::::::::::::::::::::
         :: total energy             -13.550215670949 Eh    ::
         :: gradient norm              0.262319779882 Eh/a0 ::
         :: HOMO-LUMO gap              0.111023454816 eV    ::
         ::.................................................::
         :: SCC energy               -13.744334588559 Eh    ::
         :: -> isotropic ES            0.079621083956 Eh    ::
         :: -> anisotropic ES          0.005555558431 Eh    ::
         :: -> anisotropic XC         -0.031718688942 Eh    ::
         :: -> dispersion             -0.020021778970 Eh    ::
         :: repulsion energy           0.194025335517 Eh    ::
         :: add. restraining           0.000000000000 Eh    ::
         :: total charge              -0.000000000071 e     ::
         :::::::::::::::::::::::::::::::::::::::::::::::::::::


Property printout bound to 'properties.out'

           -------------------------------------------------
          | TOTAL ENERGY              -13.550215670949 Eh   |
          | GRADIENT NORM               0.262319779882 Eh/α |
          | HOMO-LUMO GAP               0.111023454816 eV   |
           -------------------------------------------------

------------------------------------------------------------------------
 * finished run on 2026/04/17 at 12:14:41.756     
------------------------------------------------------------------------
 total:
 * wall-time:     0 d,  0 h,  0 min,  0.051 sec
 *  cpu-time:     0 d,  0 h,  0 min,  0.050 sec
 * ratio c/w:     0.999 speedup
 SCF:
 * wall-time:     0 d,  0 h,  0 min,  0.038 sec
 *  cpu-time:     0 d,  0 h,  0 min,  0.038 sec
 * ratio c/w:     1.000 speedup


-------------------------   --------------------
FINAL SINGLE POINT ENERGY       -13.550215670950
-------------------------   --------------------


-------------
DIPOLE MOMENT
-------------
                                X             Y             Z
Total Dipole Moment    :     -0.29400       0.29000      -0.12200
                        -----------------------------------------
Magnitude (a.u.)       :      0.43060
Magnitude (Debye)      :      1.09451


------------------
CARTESIAN GRADIENT
------------------

   1   B   :    0.016328612    0.062238501    0.052422802
   2   B   :   -0.001180142   -0.020398011   -0.005858804
   3   B   :   -0.039004458   -0.017117989   -0.051558874
   4   B   :   -0.020228665    0.056504201    0.026628469
   5   B   :    0.001785793   -0.058832415    0.035875449
   6   B   :    0.019231598   -0.071927455   -0.052503825
   7   B   :    0.049373816   -0.044983280   -0.028977706
   8   B   :   -0.059722379    0.073033355   -0.040104999
   9   B   :   -0.037467990   -0.033022351   -0.010940334
  10   B   :   -0.062909043    0.023672834    0.007140995
  11   B   :    0.052962032   -0.004412622    0.077177917
  12   B   :    0.080830825    0.035245232   -0.009301091

Difference to translation invariance:
           :   -0.0000000000   -0.0000000000    0.0000000000

Difference to rotation invariance:
           :   -0.0000000233    0.0000000111   -0.0000001287

Norm of the Cartesian gradient     ...    0.2623197799
RMS gradient                       ...    0.0437199633
MAX gradient                       ...    0.0808308250
------------------------------------------------------------------------------
                         ORCA GEOMETRY RELAXATION STEP
------------------------------------------------------------------------------

Reading the OPT-File                    .... done
Getting information on internals        .... done
Copying old internal coords+grads       .... done
Making the new internal coordinates     .... (2022 redundants) done
Validating the new internal coordinates .... (2022 redundants) done
Calculating the B-matrix                .... done
Calculating the G,G- and P matrices     .... done
Transforming gradient to internals      .... done
Projecting the internal gradient        .... done
Number of atoms                         ....  12
Number of internal coordinates          .... 141
Current Energy                          ....   -13.550215671 Eh
Current gradient norm                   ....     0.262319780 Eh/bohr
Maximum allowed component of the step   ....  0.300
Current trust radius                    ....  0.300
Updating the Hessian (BFGS)             .... done
Forming the augmented Hessian           .... done
Diagonalizing the augmented Hessian     .... done
Last element of RFO vector              ....  0.724891921
Lowest eigenvalues of augmented Hessian:
 -0.156353569  0.017620633  0.019322713  0.020775245  0.024060599
Length of the computed step             ....  0.950296997
Warning: the length of the step is outside the trust region - taking restricted step instead
The input lambda is                     ....     0.008108
   iter:   5  x=    0.001486  g=331613.125849 f(x)=   845.366347
   iter:  10  x=   -0.050136  g=  743.899596 f(x)=    14.860468
   iter:  15  x=   -0.379096  g=    2.153294 f(x)=     0.223496
   iter:  20  x=   -0.529699  g=    0.326190 f(x)=     0.000000
The output lambda is                    ....    -0.529699 (22 iterations)
The final length of the internal step   ....  0.300000000
Converting the step to Cartesian space:
 Initial RMS(Int)=    0.0252645576
Transforming coordinates:
 Iter   0:  RMS(Cart)=    0.0524517475 RMS(Int)=    0.0252534636
done
Storing new coordinates                 .... done
The predicted energy change is          ....    -0.049069908
Previously predicted energy change      ....    -0.047478870
Actually observed energy change         ....    -0.052863991
Ratio of predicted to observed change   ....     1.113421415
New trust radius                        ....     0.450000000

                                .--------------------.
          ----------------------|Geometry convergence|-------------------------
          Item                value                   Tolerance       Converged
          ---------------------------------------------------------------------
          Energy change      -0.0528639910            0.0000010000      NO
          RMS gradient        0.0143911711            0.0000300000      NO
          MAX gradient        0.0574782750            0.0001000000      NO
          RMS step            0.0252645576            0.0006000000      NO
          MAX step            0.0940305704            0.0010000000      NO
          -------------------------------------------------------------------------
          ........................................................
          Max(Bonds)      0.0498      Max(Angles)    1.67
          Max(Dihed)        2.19      Max(Improp)    0.00
          ---------------------------------------------------------------------

The optimization has not yet converged - more geometry cycles are needed


    ---------------------------------------------------------------------------
                         Redundant Internal Coordinates
                            (Angstroem and degrees)

        Definition                    Value    dE/dq     Step     New-Value
    ----------------------------------------------------------------------------
     1. B(B   1,B   0)                1.4222 -0.020687  0.0129    1.4351   
     2. B(B   2,B   0)                1.9457  0.047450 -0.0458    1.8999   
     3. B(B   6,B   5)                2.7543  0.004422 -0.0071    2.7472   
     4. B(B   6,B   0)                2.1140  0.044009 -0.0451    2.0689   
     5. B(B   7,B   5)                2.1739  0.027107 -0.0297    2.1443   
     6. B(B   7,B   6)                2.4241  0.042332 -0.0432    2.3810   
     7. B(B   8,B   5)                2.3863  0.028185 -0.0286    2.3577   
     8. B(B   8,B   3)                1.5468  0.057478 -0.0440    1.5028   
     9. B(B   9,B   4)                1.4127 -0.040447  0.0260    1.4387   
    10. B(B   9,B   2)                2.0355  0.013519 -0.0153    2.0202   
    11. B(B  10,B   4)                1.9547  0.021455 -0.0244    1.9303   
[...]
RMS gradient                       ...    0.0029854654
MAX gradient                       ...    0.0066242736
------------------------------------------------------------------------------
                         ORCA GEOMETRY RELAXATION STEP
------------------------------------------------------------------------------

Reading the OPT-File                    .... done
Getting information on internals        .... done
Copying old internal coords+grads       .... done
Making the new internal coordinates     .... (2022 redundants) done
Validating the new internal coordinates .... (2022 redundants) done
Calculating the B-matrix                .... done
Calculating the G,G- and P matrices     .... done
Transforming gradient to internals      .... done
Projecting the internal gradient        .... done
Number of atoms                         ....  12
Number of internal coordinates          .... 141
Current Energy                          ....   -14.275499673 Eh
Current gradient norm                   ....     0.017912792 Eh/bohr
Maximum allowed component of the step   ....  0.300
Current trust radius                    ....  0.311
Updating the Hessian (BFGS)             .... done
Forming the augmented Hessian           .... done
Diagonalizing the augmented Hessian     .... done
Last element of RFO vector              ....  0.961149435
Lowest eigenvalues of augmented Hessian:
 -0.000380219  0.000155807  0.000750423  0.002363182  0.006014712
Length of the computed step             ....  0.287185888
The final length of the internal step   ....  0.287185888
Converting the step to Cartesian space:
 Initial RMS(Int)=    0.0241854148
Transforming coordinates:
 Iter   0:  RMS(Cart)=    0.0176045729 RMS(Int)=    0.5273329420
done
Storing new coordinates                 .... done
The predicted energy change is          ....    -0.000205789
Previously predicted energy change      ....    -0.000126241
Actually observed energy change         ....    -0.000181899
Ratio of predicted to observed change   ....     1.440887601
New trust radius                        ....     0.311111111

                                .--------------------.
          ----------------------|Geometry convergence|-------------------------
          Item                value                   Tolerance       Converged
          ---------------------------------------------------------------------
          Energy change      -0.0001818988            0.0000010000      NO
          RMS gradient        0.0009375268            0.0000300000      NO
          MAX gradient        0.0042204714            0.0001000000      NO
          RMS step            0.0241854148            0.0006000000      NO
          MAX step            0.0909406553            0.0010000000      NO
          -------------------------------------------------------------------------
          ........................................................
          Max(Bonds)      0.0157      Max(Angles)    1.89
          Max(Dihed)        5.21      Max(Improp)    0.00
          ---------------------------------------------------------------------

The optimization has not yet converged - more geometry cycles are needed


    ---------------------------------------------------------------------------
                         Redundant Internal Coordinates
                            (Angstroem and degrees)

        Definition                    Value    dE/dq     Step     New-Value
    ----------------------------------------------------------------------------
     1. B(B   1,B   0)                1.5041  0.001453  0.0009    1.5051   
     2. B(B   2,B   0)                1.5406  0.002779 -0.0019    1.5387   
     3. B(B   6,B   5)                1.8792  0.001255 -0.0128    1.8664   
     4. B(B   6,B   0)                2.7512 -0.004220  0.0042    2.7554   
     5. B(B   7,B   5)                1.6409 -0.002767 -0.0045    1.6364   
     6. B(B   7,B   6)                1.5246 -0.001405 -0.0013    1.5233   
     7. B(B   8,B   5)                2.1823 -0.000111  0.0157    2.1980   
     8. B(B   8,B   3)                1.5285  0.000264 -0.0021    1.5264   
     9. B(B   9,B   4)                1.5212 -0.002750  0.0025    1.5237   
    10. B(B   9,B   2)                1.5323  0.000003 -0.0084    1.5239   
    11. B(B  10,B   4)                1.8275  0.001635 -0.0024    1.8250   
    12. B(B  10,B   2)                1.7639 -0.000546 -0.0053    1.7586   
    13. B(B  10,B   9)                1.6522 -0.001527  0.0054    1.6576   
    14. B(B  10,B   5)                1.5929 -0.000326 -0.0089    1.5841   
    15. B(B  10,B   8)                2.7410 -0.000625  0.0044    2.7454   
    16. B(B  11,B   5)                1.7805  0.000055  0.0004    1.7809   
    17. B(B  11,B   7)                1.5285  0.000157 -0.0007    1.5278   
    18. B(B  11,B   8)                1.5244  0.000271  0.0036    1.5280   
    19. A(B   1,B   0,B   2)          131.73 -0.003443    0.13    131.86   
    20. A(B   2,B   0,B   6)          106.88  0.000549   -0.13    106.75   
    21. A(B   1,B   0,B   6)           24.90 -0.004022    0.50     25.41   
    22. A(B   9,B   2,B  10)           59.67 -0.000450    0.45     60.13   
    23. A(B   0,B   2,B  10)          105.79 -0.000552   -0.61    105.18   
    24. A(B   0,B   2,B   9)          163.86 -0.001035    0.17    164.03   
    25. A(B   9,B   4,B  10)           58.27 -0.000596    0.26     58.53   
    26. A(B   8,B   5,B  10)           91.76 -0.000141   -0.09     91.67   
    27. A(B   7,B   5,B  11)           52.88  0.000401    0.16     53.04   
    28. A(B   6,B   5,B  11)          101.38 -0.000004    0.88    102.26   
    29. A(B   7,B   5,B  10)          167.44 -0.000536    0.28    167.72   
    30. A(B   8,B   5,B  11)           43.80  0.000099   -0.30     43.50   
    31. A(B  10,B   5,B  11)          135.56 -0.000041    0.13    135.69   
    32. A(B   6,B   5,B   8)          137.96 -0.000125    0.67    138.63   
    33. A(B   6,B   5,B  10)          117.56 -0.000075    0.17    117.73   
    34. A(B   6,B   5,B   7)           50.78 -0.000431    0.27     51.04   
    35. A(B   7,B   5,B   8)           96.01  0.000426   -0.25     95.76   
    36. A(B   5,B   6,B   7)           56.49 -0.001143    0.56     57.05   
    37. A(B   0,B   6,B   7)          139.25 -0.000878    0.95    140.20   
    38. A(B   0,B   6,B   5)           82.80  0.000270   -0.14     82.66   
    39. A(B   5,B   7,B   6)           72.73  0.001573   -0.82     71.91   
    40. A(B   6,B   7,B  11)          136.16  0.002023    0.06    136.22   
    41. A(B   5,B   7,B  11)           68.25  0.000665    0.07     68.32   
    42. A(B   3,B   8,B  11)          145.90 -0.000067   -0.03    145.87   
    43. A(B  10,B   8,B  11)           89.46  0.000047   -0.44     89.02   
    44. A(B   3,B   8,B  10)           56.60 -0.000116    0.23     56.84   
    45. A(B   5,B   8,B  11)           53.95  0.000035   -0.29     53.65   
    46. A(B   5,B   8,B  10)           35.51  0.000012   -0.32     35.20   
    47. A(B   3,B   8,B   5)           92.05 -0.000101   -0.15     91.91   
    48. A(B   2,B   9,B   4)          136.34  0.001909   -0.22    136.12   
    49. A(B   4,B   9,B  10)           70.18  0.001648   -0.39     69.79   
    50. A(B   2,B   9,B  10)           67.15  0.000147   -0.17     66.98   
    51. A(B   2,B  10,B   4)          104.22 -0.000661    0.03    104.25   
    52. A(B   5,B  10,B   9)          175.52  0.000038    0.01    175.53   
    53. A(B   4,B  10,B   9)           51.55 -0.001053    0.13     51.68   
    54. A(B   2,B  10,B   9)           53.18  0.000303   -0.29     52.89   
    55. A(B   5,B  10,B   8)           52.73  0.000129    0.41     53.14   
    56. A(B   4,B  10,B   8)           75.51  0.000978   -0.46     75.04   
    57. A(B   2,B  10,B   8)          162.22  0.000032    1.89    164.10   
    58. A(B   4,B  10,B   5)          128.04  0.001069    0.10    128.13   
    59. A(B   2,B  10,B   5)          126.23 -0.000254    0.72    126.95   
    60. A(B   8,B  10,B   9)          126.14 -0.000154   -0.15    125.99   
    61. A(B   7,B  11,B   8)          139.52 -0.001300   -0.03    139.49   
    62. A(B   5,B  11,B   7)           58.87 -0.001065   -0.23     58.64   
    63. A(B   5,B  11,B   8)           82.25 -0.000133    0.59     82.84   
    64. D(B   9,B   2,B   0,B   6)    -21.06  0.000583    3.02    -18.05   
    65. D(B  10,B   2,B   0,B   1)      5.25 -0.000758   -0.24      5.01   
    66. D(B  10,B   2,B   0,B   6)      3.36 -0.000036    0.09      3.45   
    67. D(B   9,B   2,B   0,B   1)    -19.17 -0.000138    2.69    -16.48   
    68. D(B   7,B   6,B   5,B  11)    -16.48 -0.000001    1.41    -15.07   
    69. D(B   0,B   6,B   5,B   7)   -177.96  0.000150    0.30   -177.66   
    70. D(B   5,B   6,B   0,B   2)     -6.79 -0.000140   -0.05     -6.84   
    71. D(B   7,B   6,B   0,B   1)    173.95 -0.000842    1.15    175.10   
    72. D(B   0,B   6,B   5,B  11)    165.56  0.000149    1.71    167.27   
    73. D(B   7,B   6,B   5,B  10)   -174.38  0.000230   -0.03   -174.42   
    74. D(B   0,B   6,B   5,B   8)    136.75 -0.000260    1.58    138.33   
    75. D(B   0,B   6,B   5,B  10)      7.66  0.000380    0.27      7.92   
    76. D(B   7,B   6,B   0,B   2)     -9.40 -0.000251    2.21     -7.19   
    77. D(B   5,B   6,B   0,B   1)    176.56 -0.000732   -1.11    175.45   
    78. D(B  11,B   7,B   5,B   8)     -8.18 -0.000433   -0.68     -8.86   
    79. D(B   5,B   7,B   6,B   0)      3.10  0.000174   -2.01      1.10   
    80. D(B  11,B   7,B   6,B   5)     27.88  0.001096   -3.20     24.68   
    81. D(B  11,B   7,B   6,B   0)     30.99  0.001271   -5.21     25.78   
    82. D(B   6,B   7,B   5,B   8)    151.41 -0.000321    1.04    152.45   
    83. D(B   6,B   7,B   5,B  11)    159.59  0.000112    1.71    161.30   
    84. D(B  11,B   7,B   5,B  10)   -136.08 -0.000123   -1.49   -137.57   
    85. D(B   6,B   7,B   5,B  10)     23.51 -0.000011    0.23     23.73   
    86. D(B  11,B   7,B   5,B   6)   -159.59 -0.000112   -1.71   -161.30   
    87. D(B  11,B   8,B   5,B  10)    179.54  0.000072    1.18    180.72   
    88. D(B   3,B   8,B   5,B  10)     -3.19  0.000067    1.27     -1.92   
    89. D(B   3,B   8,B   5,B   7)   -173.30  0.000528    1.00   -172.30   
    90. D(B   3,B   8,B   5,B  11)    177.27 -0.000006    0.09    177.36   
    91. D(B  11,B   8,B   5,B   6)     43.05  0.000599    0.05     43.10   
    92. D(B   3,B   8,B   5,B   6)   -139.68  0.000593    0.14   -139.54   
    93. D(B  11,B   8,B   5,B   7)      9.43  0.000533    0.91     10.34   
    94. D(B   4,B   9,B   2,B   0)     14.51 -0.000033   -2.61     11.90   
    95. D(B   2,B   9,B   4,B  10)     12.67 -0.000567   -0.24     12.42   
    96. D(B  10,B   9,B   2,B   0)     27.45 -0.000491   -2.74     24.71   
    97. D(B   4,B   9,B   2,B  10)    -12.94  0.000458    0.13    -12.80   
    98. D(B   5,B  10,B   9,B   4)     86.42  0.000223    3.21     89.63   
    99. D(B   5,B  10,B   9,B   2)    -84.12 -0.000541   -2.47    -86.59   
   100. D(B   4,B  10,B   9,B   2)   -170.55 -0.000764   -0.46   -171.00   
   101. D(B   5,B  10,B   8,B   3)    176.18  0.000075    1.45    177.63   
   102. D(B   4,B  10,B   8,B   5)   -175.17  0.000404   -1.09   -176.26   
   103. D(B   4,B  10,B   8,B  11)   -175.54  0.000463    0.03   -175.50   
   104. D(B   2,B  10,B   8,B   5)     93.41 -0.000466   -1.00     92.40   
   105. D(B   2,B  10,B   8,B  11)     93.04 -0.000407    0.12     93.16   
   106. D(B   2,B  10,B   8,B   3)    -90.41 -0.000391    0.45    -89.96   
   107. D(B   4,B  10,B   5,B   8)      5.94  0.000611   -1.34      4.60   
   108. D(B   4,B  10,B   5,B  11)      6.39  0.000540   -3.85      2.55   
   109. D(B   4,B  10,B   5,B   7)    134.21  0.000368   -0.58    133.64   
   110. D(B   4,B  10,B   5,B   6)    154.61  0.000213   -0.01    154.61   
   111. D(B   2,B  10,B   5,B   8)   -157.79 -0.000105   -2.05   -159.85   
   112. D(B   2,B  10,B   5,B  11)   -157.34 -0.000176   -4.56   -161.90   
   113. D(B   2,B  10,B   5,B   7)    -29.52 -0.000348   -1.29    -30.81   
   114. D(B   2,B  10,B   5,B   6)     -9.12 -0.000503   -0.72     -9.84   
   115. D(B   8,B  10,B   4,B   9)   -169.44  0.000524   -1.58   -171.01   
   116. D(B   5,B  10,B   4,B   9)   -174.32  0.000036   -0.40   -174.72   
   117. D(B   4,B  10,B   8,B   3)      1.02  0.000479    0.36      1.37   
   118. D(B   2,B  10,B   4,B   9)     -7.80  0.000620    0.30     -7.49   
   119. D(B   8,B  10,B   2,B   0)    -77.88  0.000735    0.46    -77.42   
   120. D(B   9,B  10,B   2,B   0)   -172.35  0.000332    0.71   -171.64   
   121. D(B   2,B  10,B   9,B   4)    170.55  0.000764    0.46    171.00   
   122. D(B   4,B  10,B   2,B   9)      7.63 -0.000749   -0.39      7.23   
   123. D(B   4,B  10,B   2,B   0)   -164.72 -0.000416    0.31   -164.41   
   124. D(B   5,B  10,B   2,B   9)    174.47  0.000060    0.19    174.66   
   125. D(B   8,B  10,B   9,B   2)   -157.85 -0.000099   -2.57   -160.42   
   126. D(B   8,B  10,B   9,B   4)     12.69  0.000665   -2.11     10.58   
   127. D(B   5,B  10,B   2,B   0)      2.13  0.000392    0.89      3.02   
   128. D(B   5,B  11,B   8,B  10)      0.26 -0.000042   -0.79     -0.53   
   129. D(B   5,B  11,B   8,B   3)     -4.87 -0.000002   -0.92     -5.80   
   130. D(B   7,B  11,B   8,B  10)    -15.37 -0.000237   -2.35    -17.71   
   131. D(B   7,B  11,B   8,B   3)    -20.51 -0.000197   -2.48    -22.98   
   132. D(B   8,B  11,B   7,B   6)    -10.56 -0.000825    4.94     -5.62   
   133. D(B   8,B  11,B   7,B   5)     18.18  0.000434    2.00     20.17   
   134. D(B   5,B  11,B   7,B   6)    -28.74 -0.001259    2.94    -25.79   
   135. D(B   8,B  11,B   5,B   7)   -168.21  0.000598    1.15   -167.06   
   136. D(B   8,B  11,B   5,B   6)   -152.21  0.000410   -0.32   -152.53   
   137. D(B   7,B  11,B   8,B   5)    -15.63 -0.000195   -1.55    -17.18   
   138. D(B   8,B  11,B   5,B  10)     -0.65  0.000104    2.94      2.30   
   139. D(B   7,B  11,B   5,B   8)    168.21 -0.000598   -1.15    167.06   
   140. D(B   7,B  11,B   5,B   6)     16.00 -0.000187   -1.46     14.53   
   141. D(B   7,B  11,B   5,B  10)    167.56 -0.000494    1.80    169.35   
    ----------------------------------------------------------------------------

Geometry step timings:
Preparation and reading OPT file:      0.000 s ( 0.689 %)
Internal coordinates            :      0.000 s ( 0.971 %)
B/P matrices and projection     :      0.001 s (21.905 %)
Hessian update/contruction      :      0.001 s (18.364 %)
Making the step                 :      0.002 s (33.250 %)
Converting the step to Cartesian:      0.000 s ( 3.588 %)
Storing new data                :      0.000 s ( 1.269 %)
Checking convergence            :      0.000 s ( 1.160 %)
Final printing                  :      0.001 s (18.756 %)
Total time                      :      0.006 s

Time for energy+gradient        :      0.063 s
Time for complete geometry iter :      0.071 s




    ----------------------------------------------------------------------------
                                  WARNING !!!
       The optimization did not converge but reached the maximum number of
       optimization cycles.
       Please check your results very carefully.
    ----------------------------------------------------------------------------



--------------------------------
SUGGESTED CITATIONS FOR THIS RUN
--------------------------------

Below you find a list of papers that are relevant to this ORCA run
We neither can nor want to force you to cite these papers, but we appreciate if you do
You receive ORCA, which is the product of decades of hard work by many enthusiastic individuals, for free
The only thing we kindly ask in return is that you cite our papers,
We deeply appreciate it, if you show your appreciation for ORCA by not just citing the generic ORCA reference.

Please note that relegating all ORCA citations to the supporting information does *not* help us.
SI sections are not indexed - citations you put there will not count into any citation statistics
But we need these citations in order to attract the funding resources that allow us to do what we are doing

Therefore, if you are a happy ORCA user, please consider citing a few of the papers listed below in the main body of your paper

In addition to the list printed below, the program has created the file random_d1.70_010_m3.bibtex that contains the list in bibtex format
You can import this file easily into all common literature databanks and citation aid programs

It goes without saying that in many instances, there are alternative algorithms to achieve similar
results as the ones you have gotten from ORCA. It is, of course, also the case that in some instances
ORCA just re-implements algorithms worked out by others. We are fully aware of that and we are also
fully appreciative of our colleagues work. Hence this citation list should not be read as indicating
that the listed papers, which are focused on our own work, are the only ones worth citing. It simply
meant to make it easier for users to cite ORCA specific papers. It is not a substitute for doing your
own literature research and citing the relevant literature in a scientifically appropriate manner.

List of essential papers. We consider these as the minimum necessary citations

  1. Bannwarth, C.; Ehlert, S.; Grimme, S.
     GFN2-xTB—An Accurate and Broadly Parametrized Self-Consistent Tight-Binding Quantum Chemical Method with Multipole Electrostatics and Density-Dependent Dispersion Contributions
     J. Chem. Theory Comput. 2019 15(3), 1652-1671
     doi.org/10.1021/acs.jctc.8b01176
  2. Neese, F.
     Software update: the ORCA program system, version 6.0
     WIRES Comput. Molec. Sci. 2025 15(1), e70019
     doi.org/10.1002/wcms.70019

List of papers to cite with high priority. The work reported in these papers was absolutely
necessary for this run to complete.
Our perspective: the developers of density functionals and basis sets usually get cited in chemistry papers
Good! But without the algorithms to do something with them, the functionals or basis sets would not do anything.
Hence, in our opinion, the algorithm design and method developments papers are equally worthy of getting cited

  1. Bannwarth, C.; Caldeweyher, E.; Ehlert, S.; Hansen, A.; Pracht, P.; Seibert, J.; Spicher, S.; Grimme, S.
     Extended tight-binding quantum chemistry methods
     WIRES Comput. Molec. Sci. 2020 11(2), e1493
     doi.org/10.1002/wcms.1493

List of suggested additional citations. These are papers that are important in the 'surrounding' of 
of this run, or papers that preceded the highly important papers. If you like your results we are grateful for a citation.

  1. Neese, F.
     The ORCA program system
     WIRES Comput. Molec. Sci. 2012 2(1), 73-78
     doi.org/10.1002/wcms.81
  2. Neese, F.
     Software update: the ORCA program system, version 4.0
     WIRES Comput. Molec. Sci. 2018 8(1), 1-6
     doi.org/10.1002/wcms.1327
  3. Neese, F.; Wennmohs, F.; Becker, U.; Riplinger, C.
     The ORCA quantum chemistry program package
     J. Chem. Phys. 2020 152(22), 224108
     doi.org/10.1063/5.0004608
  4. Neese, F.
     Software update: The ORCA program system—Version 5.0
     WIRES Comput. Molec. Sci. 2022 12(1), e1606
     doi.org/10.1002/wcms.1606

List of optional additional citations

  1. Neese, F.
     Approximate second-order SCF convergence for spin unrestricted wavefunctions
     Chem. Phys. Lett. 2000 325(1-3), 93-98
     doi.org/10.1016/s0009-2614(00)00662-x

Timings for individual modules:

Sum of individual times          ...        3.203 sec (=   0.053 min)
Geometry relaxation              ...        0.416 sec (=   0.007 min)  13.0 %
XTB module                       ...        2.787 sec (=   0.046 min)  87.0 %
                             ****ORCA TERMINATED NORMALLY****
TOTAL RUN TIME: 0 days 0 hours 0 minutes 3 seconds 735 msec
