
                                 *****************
                                 * O   R   C   A *
                                 *****************

                                            #,                                       
                                            ###                                      
                                            ####                                     
                                            #####                                    
                                            ######                                   
                                           ########,                                 
                                     ,,################,,,,,                         
                               ,,#################################,,                 
                          ,,##########################################,,             
                       ,#########################################, ''#####,          
                    ,#############################################,,   '####,        
                  ,##################################################,,,,####,       
                ,###########''''           ''''###############################       
              ,#####''   ,,,,##########,,,,          '''####'''          '####       
            ,##' ,,,,###########################,,,                        '##       
           ' ,,###''''                  '''############,,,                           
         ,,##''                                '''############,,,,        ,,,,,,###''
      ,#''                                            '''#######################'''  
     '                                                          ''''####''''         
             ,#######,   #######,   ,#######,      ##                                
            ,#'     '#,  ##    ##  ,#'     '#,    #''#        ,####,    ,#,          
            ##       ##  ##   ,#'  ##            #'  '#       #'       ,# #          
            ##       ##  #######   ##           ,######,      #####,      #          
            '#,     ,#'  ##    ##  '#,     ,#' ,#      #,     #,   #      #          
             '#######'   ##     ##  '#######'  #'      '#     '####' #    #          



                #########################################################
                #                        -***-                          #
                #          Department of theory and spectroscopy        #
                #                                                       #
                #                      Frank Neese                      #
                #                                                       #
                #     Directorship, Architecture, Infrastructure        #
                #                    SHARK, DRIVERS                     #
                #        Core code/Algorithms in most modules           #
                #                                                       #
                #        Max Planck Institute fuer Kohlenforschung      #
                #                Kaiser Wilhelm Platz 1                 #
                #                 D-45470 Muelheim/Ruhr                 #
                #                      Germany                          #
                #                                                       #
                #                  All rights reserved                  #
                #                        -***-                          #
                #########################################################


                         Program Version 6.1.1  -  RELEASE   -
                                (GIT: $487d211c$)
                          ($2025-11-21 10:33:24 +0100$)
                                                                         
                                  - NO-DMRG VERSION -                    
                                                                         


 With contributions from (in alphabetic order):
[Max-Planck-Institut fuer Kohlenforschung]                               
  Daniel Aravena         : Magnetic Suceptibility                        
  Michael Atanasov       : Ab Initio Ligand Field Theory (pilot matlab implementation)
  Alexander A. Auer      : GIAO ZORA, VPT2 properties, NMR spectrum      
  Ute Becker             : All parallelization in ORCA, NUMFREQ, NUMCALC 
  Giovanni Bistoni       : ED, misc. LED, open-shell LED, HFLD           
  Dmytro Bykov           : pre 5.0 version of the SCF Hessian            
  Marcos Casanova-Páez   : Triplet and SCS-CIS(D). UHF-(DLPNO)-IP/EA/STEOM-CCSD. UHF-CVS-IP/STEOM-CCSD   
  Vijay G. Chilkuri      : MRCI spin determinant printing, contributions to CSF-ICE 
  Pauline Colinet        : FMM embedding                                 
  Dipayan Datta          : RHF DLPNO-CCSD density                        
  Achintya Kumar Dutta   : EOM-CC, STEOM-CC                              
  Nicolas Foglia         : Exact transition moments, OPA infrastructure, MCD improvements    
  Dmitry Ganyushin       : Spin-Orbit,Spin-Spin,Magnetic field MRCI      
  Miquel Garcia-Rates    : C-PCM and meta-GGA Hessian, CCSD/C-PCM, Gaussian charge scheme 
  Tiago L. C. Gouveia    : GS-ROHF, GS-ROCIS                             
  Yang Guo               : DLPNO-NEVPT2, F12-NEVPT2, CIM, IAO-localization        
  Andreas Hansen         : Spin unrestricted coupled pair/coupled cluster methods 
  Ingolf Harden          : AUTO-CI MPn and infrastructure                
  Benjamin Helmich-Paris : MC-RPA, TRAH-(SCF,CASSCF), AVAS, COSX integrals, SCF dyn. polar., MC-PDFT, srDFT 
  Lee Huntington         : MR-EOM, pCC                                   
  Robert Izsak           : Overlap fitted RIJCOSX, COSX-SCS-MP3, EOM     
  Riya Kayal             : Wick's Theorem for AUTO-CI, AUTO-CI UHF-CCSDT 
  Emily Kempfer          : AUTO-CI RHF CISDT and CCSDT, approximate NEVPT4
  Christian Kollmar      : KDIIS, OOCD, Brueckner-CCSD(T), CCSD density, CASPT2, CASPT2-K, improved NEVPT2 
  Axel Koslowski         : Symmetry handling                             
  Simone Kossmann        : meta-GGA functionals, TD-DFT gradient, OOMP2, (MP2 Hessian; deprecated post 5.0) 
  Lucas Lang             : DCDCAS, Hyperfine gauge corrections, ICE-SOC+SSC
  Marvin Lechner         : AUTO-CI (C++ implementation), FIC-MRCC        
  Spencer Leger          : CASSCF response                               
  Dagmar Lenk            : GEPOL surface, SMD, ORCA-2-JSON               
  Dimitrios Liakos       : Extrapolation schemes; Compound Job, Property file
  Dimitrios Manganas     : Further ROCIS development; embedding schemes. LFT, Crystal Embedding 
  Dimitrios Pantazis     : SARC Basis sets                               
  Anastasios Papadopoulos: AUTO-CI, single reference methods and gradients 
  Taras Petrenko         : pre 6.0 DFT Hessian and TD-DFT gradient,  ECA, NRVS 
  Petra Pikulova         : Analytic Raman intensities                    
  Peter Pinski           : DLPNO-MP2, DLPNO-MP2 Gradient                 
  Shashank Vittal Rao    : ES-AILFT, MagRelax                            
  Christoph Reimann      : Effective Core Potentials                     
  Marius Retegan         : Local ZFS, SOC                                
  Christoph Riplinger    : Optimizer, TS searches, QM/MM, DLPNO-CCSD(T), (RO)-DLPNO pert. Triples 
  Michael Roemelt        : Original ROCIS implementation, recursive CI coupling coefficients
  Masaaki Saitow         : Open-shell DLPNO-CCSD energy and density      
  Barbara Sandhoefer     : DKH picture change effects                    
  Yorick L. A. Schmerwitz: GMF and freeze-and-release deltaSCF, NEB S-IDPP initial path                    
  Kantharuban Sivalingam : CASSCF convergence/infrastructure, NEVPT2, NEVPT3, NEVPT4(SD), FIC-MRCI and CEPA variants
  Bernardo de Souza      : ESD, SOC TD-DFT                               
  Georgi L. Stoychev     : AutoAux, RI-MP2 NMR, DLPNO-MP2 response, X2C  
  Van Anh Tran           : RI-MP2 g-tensors                              
  Willem Van den Heuvel  : Paramagnetic NMR                              
  Zikuan Wang            : NOTCH, Electric field optimization            
  Frank Wennmohs         : Technical directorship and infrastructure     
  Hang Xu                : AUTO-CI-Response properties                   
                                                                         
[FACCTs GmbH]                                                            
  Markus Bursch, Nicolas Foglia, Miquel Garcia-Rates, Ingolf Harden, Hagen Neugebauer, Anastasios Papadopoulos, 
  Christoph Riplinger, Bernardo de Souza, Georgi L. Stoychev                                                    
                                                                 
  APM, various basis sets, CI-OPT, improved COSX, DLPNO-Multilevel,           
  DOCKER, DRACO, updates on ESD, Fragmentator, GOAT, IRC, LR-CPCM, L-BFGS, MBIS, meta-GGA TD-DFT gradient, ML-optimized integration grids, 
  MM, NACMEs, nearIR, NEB, NEB-TS, NL-DFT gradient (VV10), 2- and 3-layer-ONIOM, interface openCOSMO-RS, QMMM,   
  Crystal-QMMM, RESP, rigid body optimization, SF, symmetry and pop. for TD-DFT, various functionals, SOLVATOR                                   
                                                                         
[Other institutions]                                                     
  V. Asgeirsson          : NEB                                           
  Christoph Bannwarth    : sTDA-DFT, sTD-DFT, PBEh-3c, B97-3c, D3        
  Giovanni Bistoni       : ETS/NOCV, ADLD/ADEX, COVALED                  
  Martin Brehm           : Molecular dynamics                            
  Ronald Cardenas        : ETS/NOCV                                      
  Martina Colucci        : COVALED                                       
  Sebastian Ehlert       : rSCAN, r2SCAN, r2SCAN-3c, D4, dhf basis sets  
  Marvin Friede          : D4 for Fr, Ra, Ac-Lr                          
  Lars Goerigk           : TD-DFT with DH, B97 family of functionals     
  Stefan Grimme          : VdW corrections, initial TS optimization, DFT functionals, gCP, sTDA/sTD-DF 
  Waldemar Hujo          : DFT-NL                                        
  H. Jonsson             : NEB                                           
  Holger Kruse           : gCP                                           
  Marcel Mueller         : wB97X-3c, vDZP basis set                      
  Hagen Neugebauer       : wr2SCAN, Native XTB                           
  Gianluca Regni         : ADLD/ADEX                                     
  Tobias Risthaus        : pre 6.0 range-separated hybrid DFT and stability analysis
  Lukas Wittmann         : regularized MP2, r2SCAN double-hybrids, wr2SCAN        
                                                                         
We gratefully acknowledge several colleagues who have allowed us to      
interface, adapt or use parts of their codes:                            
  Ed Valeev, F. Pavosevic, A. Kumar             : LibInt (2-el integral package), F12 methods 
  Garnet Chan, S. Sharma, J. Yang, R. Olivares  : DMRG                   
  Ulf Ekstrom                                   : XCFun DFT Library      
  Mihaly Kallay                                 : mrcc  (arbitrary order and MRCC methods)
  Frank Weinhold                                : gennbo (NPA and NBO analysis)           
  Simon Mueller                                 : openCOSMO-RS                            
  Christopher J. Cramer and Donald G. Truhlar   : smd solvation model                     
  S Lehtola, MJT Oliveira, MAL Marques          : LibXC Library                           
  Liviu Ungur et al                             : ANISO software                          


 Your calculation uses the libint2 library for the computation of 2-el integrals
 For citations please refer to: http://libint.valeyev.net

 Your ORCA version has been built with support for libXC version: 7.0.0
 For citations please refer to: https://libxc.gitlab.io

 This ORCA versions uses:
   CBLAS   interface :  Fast vector & matrix operations
   LAPACKE interface :  Fast linear algebra routines
   SCALAPACK package :  Parallel linear algebra routines
   Shared memory     :  Shared parallel matrices
   BLAS/LAPACK       :  OpenBLAS 0.3.29  USE64BITINT DYNAMIC_ARCH NO_AFFINITY Zen SINGLE_THREADED
        Core in use  :  Zen
   Copyright (c) 2011-2014, The OpenBLAS Project


  ***********************************
  * Starting time: Fri Apr 17 12:14:39 2026
  * Host name:     vmi3233575
  * Process ID:    337826
  * Working dir.:  /root/orca_b12_vps_pack/jobs/01_xtb/mult_3
  ***********************************

NOTE: MaxCore=500 MB was set to SCF,MP2,MDCI,CIPSI,MRCI,RASCI and CIS
      => If you want to overwrite this, your respective input block should be placed after the MaxCore statement


***************************************
The coordinates will be read from file: ../../../starts/random_d1.70_006.xyz
***************************************


Your calculation utilizes the semiempirical GFN2-xTB method
Please cite in your paper:
Bannwarth, C.; Ehlert S.; Grimme, S. J. Chem. Theory Comput. 2019, 15, 1652.
   

================================================================================

================================================================================
                                        WARNINGS
                       Please study these warnings very carefully!
================================================================================


WARNING: Geometry Optimization
  ===> : Switching off AutoStart
         For restart on a previous wavefunction, please use MOREAD

WARNING: Found dipole moment calculation with XTB calculation
  ===> : Switching off dipole moment calculation

Environment variable XTBEXE for xtb has been set!

================================================================================
                                       INPUT FILE
================================================================================
NAME = random_d1.70_006_m3.inp
|  1> ! GFN2-xTB TightSCF TightOpt
|  2> 
|  3> %pal
|  4>   nprocs 1
|  5> end
|  6> 
|  7> %maxcore 500
|  8> 
|  9> * xyzfile 0 3 ../../../starts/random_d1.70_006.xyz
| 10> 
| 11>                          ****END OF INPUT****
================================================================================

                       *****************************
                       * Geometry Optimization Run *
                       *****************************

Geometry optimization settings:
Update method            Update   .... BFGS
Choice of coordinates    CoordSys .... (2022) Redundant Internals
Initial Hessian          InHess   .... Almloef's Model
Max. no of cycles        MaxIter  .... 50

Convergence Tolerances:
Energy Change            TolE     ....  1.0000e-06 Eh
Max. Gradient            TolMAXG  ....  1.0000e-04 Eh/bohr
RMS Gradient             TolRMSG  ....  3.0000e-05 Eh/bohr
Max. Displacement        TolMAXD  ....  1.0000e-03 bohr
RMS Displacement         TolRMSD  ....  6.0000e-04 bohr
Strict Convergence                .... False

------------------------------------------------------------------------------
                        ORCA OPTIMIZATION COORDINATE SETUP
------------------------------------------------------------------------------

The optimization will be done in redundant internal coordinates (2022)
Making redundant internal coordinates   ...  (2022 redundants) done
Evaluating the initial hessian          ...  (Almloef) done
Evaluating the coordinates              ...  done
Calculating the B-matrix                .... done
Calculating the G-matrix                .... done
The number of degrees of freedom        ....   85

    -----------------------------------------------------------------
                    Redundant Internal Coordinates


    -----------------------------------------------------------------
         Definition                    Initial Value    Approx d2E/dq
    -----------------------------------------------------------------
      1. B(B   4,B   2)                  2.8503         0.010000   
      2. B(B   5,B   1)                  2.8765         0.010000   
      3. B(B   6,B   2)                  3.2187         0.010000   
      4. B(B   6,B   5)                  2.4975         0.014336   
      5. B(B   6,B   4)                  1.5066         0.546240   
      6. B(B   7,B   2)                  2.8210         0.010000   
      7. B(B   7,B   1)                  2.7250         0.010000   
      8. B(B   7,B   6)                  2.4902         0.014723   
      9. B(B   7,B   5)                  1.5866         0.407066   
     10. B(B   8,B   4)                  2.0533         0.073308   
     11. B(B   9,B   3)                  1.4695         0.625915   
     12. B(B   9,B   0)                  1.8025         0.184190   
     13. B(B  10,B   3)                  1.9140         0.122301   
     14. B(B  11,B   8)                  1.7974         0.187695   
     15. B(B  11,B   9)                  1.5519         0.462417   
     16. A(B   5,B   1,B   7)           32.7664         0.128519   
     17. A(B   4,B   2,B   6)           27.9084         0.115790   
     18. A(B   6,B   2,B   7)           48.1461         0.116450   
     19. A(B   4,B   2,B   7)           72.4561         0.126290   
     20. A(B   9,B   3,B  10)          164.6902         0.338892   
     21. A(B   6,B   4,B   8)          100.6276         0.304803   
     22. A(B   2,B   4,B   8)          113.8702         0.159603   
     23. A(B   2,B   4,B   6)           89.7749         0.200235   
     24. A(B   1,B   5,B   7)           68.3624         0.190833   
     25. A(B   6,B   5,B   7)           71.2032         0.228552   
     26. A(B   1,B   5,B   6)          116.7400         0.136749   
     27. A(B   2,B   6,B   5)           86.0253         0.124923   
     28. A(B   2,B   6,B   4)           62.3167         0.170884   
     29. A(B   5,B   6,B   7)           37.0963         0.154832   
     30. A(B   4,B   6,B   5)          147.2118         0.238157   
     31. A(B   2,B   6,B   7)           57.5418         0.125140   
     32. A(B   4,B   6,B   7)          111.6125         0.239061   
     33. A(B   1,B   7,B   6)          122.7866         0.143485   
     34. A(B   1,B   7,B   5)           78.8712         0.204499   
     35. A(B   1,B   7,B   2)          156.5188         0.130384   
     36. A(B   2,B   7,B   6)           74.3121         0.139305   
     37. A(B   2,B   7,B   5)          124.0168         0.195639   
     38. A(B   5,B   7,B   6)           71.7005         0.229397   
     39. A(B   4,B   8,B  11)          121.9102         0.258454   
     40. A(B   3,B   9,B  11)          109.7232         0.426664   
     41. A(B   0,B   9,B  11)          115.0501         0.345002   
     42. A(B   0,B   9,B   3)          133.2885         0.363159   
     43. A(B   8,B  11,B   9)           89.6126         0.346096   
     44. D(B   8,B   4,B   2,B   6)    101.5334         0.010000   
     45. D(B   6,B   4,B   2,B   7)    -26.0779         0.010000   
     46. D(B   8,B   4,B   2,B   7)     75.4554         0.010000   
     47. D(B   6,B   5,B   1,B   7)    -53.9842         0.010000   
     48. D(B   7,B   6,B   2,B   4)   -145.7554         0.010000   
     49. D(B   4,B   6,B   5,B   1)     74.8749         0.010000   
     50. D(B   5,B   6,B   4,B   2)     16.4646         0.015049   
     51. D(B   4,B   6,B   2,B   7)    145.7554         0.010000   
     52. D(B   4,B   6,B   5,B   7)     22.2936         0.010000   
     53. D(B   5,B   6,B   2,B   7)    -25.3943         0.010000   
     54. D(B   2,B   6,B   5,B   1)     89.4461         0.010000   
     55. D(B   7,B   6,B   5,B   1)     52.5812         0.010000   
     56. D(B   7,B   6,B   4,B   2)     30.7121         0.015049   
     57. D(B   5,B   6,B   4,B   8)    -97.8028         0.015049   
     58. D(B   5,B   6,B   2,B   4)   -171.1497         0.010000   
     59. D(B   2,B   6,B   5,B   7)     36.8649         0.010000   
     60. D(B   2,B   6,B   4,B   8)   -114.2674         0.015049   
     61. D(B   7,B   6,B   4,B   8)    -83.5552         0.015049   
     62. D(B   5,B   7,B   6,B   4)   -167.2341         0.010000   
     63. D(B   2,B   7,B   5,B   1)    174.2615         0.010000   
     64. D(B   2,B   7,B   5,B   6)    -55.4722         0.010000   
     65. D(B   6,B   7,B   5,B   1)   -130.2663         0.010000   
     66. D(B   1,B   7,B   2,B   6)   -139.9180         0.010000   
     67. D(B   1,B   7,B   2,B   4)   -123.8822         0.010000   
     68. D(B   6,B   7,B   2,B   4)     16.0358         0.010000   
     69. D(B   1,B   7,B   5,B   6)    130.2663         0.010000   
     70. D(B   5,B   7,B   2,B   6)     54.3362         0.010000   
     71. D(B   5,B   7,B   2,B   4)     70.3720         0.010000   
     72. D(B   2,B   7,B   1,B   5)   -167.9948         0.010000   
     73. D(B   5,B   7,B   6,B   2)   -134.8228         0.010000   
     74. D(B   6,B   7,B   1,B   5)     59.5126         0.010000   
     75. D(B   2,B   7,B   6,B   4)    -32.4113         0.010000   
     76. D(B   1,B   7,B   6,B   2)    162.2317         0.010000   
     77. D(B   1,B   7,B   6,B   5)    -62.9455         0.010000   
     78. D(B   1,B   7,B   6,B   4)    129.8204         0.010000   
     79. D(B  11,B   8,B   4,B   2)     19.0923         0.010000   
     80. D(B  11,B   8,B   4,B   6)    113.6041         0.010000   
     81. D(B  11,B   9,B   3,B  10)     -0.1183         0.016586   
     82. D(B   0,B   9,B   3,B  10)    162.7513         0.016586   
     83. D(B   8,B  11,B   9,B   3)    114.7085         0.010000   
     84. D(B   8,B  11,B   9,B   0)    -51.6017         0.010000   
     85. D(B   9,B  11,B   8,B   4)   -103.9562         0.010000   
    -----------------------------------------------------------------

Number of atoms                         .... 12
Number of degrees of freedom            .... 85


         *************************************************************
         *                GEOMETRY OPTIMIZATION CYCLE   1            *
         *************************************************************
---------------------------------
CARTESIAN COORDINATES (ANGSTROEM)
---------------------------------
  B    -1.090022    1.199987    2.531603
  B     2.793490   -1.100522    1.814542
  B     0.209244   -0.683710   -2.942903
  B     0.840233    1.755907    0.294212
  B    -1.986776   -1.080893   -1.169756
  B     1.149891   -2.835857    0.214135
  B    -1.142123   -2.014523   -0.342309
  B     1.266627   -1.387984   -0.424166
  B    -2.267834    0.456315    0.162145
  B    -0.477619    1.792770    0.943348
  B     2.278856    1.807279   -0.967122
  B    -1.573967    2.091232   -0.113728

----------------------------
CARTESIAN COORDINATES (A.U.)
----------------------------
  NO LB    ZA    FRAG    MASS        X           Y           Z
   0 B   5.0000    0    10.810   -2.059843    2.267647    4.784037
   1 B   5.0000    0    10.810    5.278931   -2.079686    3.428988
   2 B   5.0000    0    10.810    0.395414   -1.292024   -5.561281
   3 B   5.0000    0    10.810    1.587809    3.318184    0.555979
   4 B   5.0000    0    10.810   -3.754462   -2.042592   -2.210518
   5 B   5.0000    0    10.810    2.172980   -5.358993    0.404656
   6 B   5.0000    0    10.810   -2.158299   -3.806897   -0.646870
   7 B   5.0000    0    10.810    2.393578   -2.622910   -0.801557
   8 B   5.0000    0    10.810   -4.285586    0.862310    0.306409
   9 B   5.0000    0    10.810   -0.902569    3.387844    1.782669
  10 B   5.0000    0    10.810    4.306414    3.415262   -1.827596
  11 B   5.0000    0    10.810   -2.974367    3.951855   -0.214916

      -----------------------------------------------------------      
     |                   =====================                   |     
     |                           x T B                           |     
     |                   =====================                   |     
     |                         S. Grimme                         |     
     |          Mulliken Center for Theoretical Chemistry        |     
     |                    University of Bonn                     |     
      -----------------------------------------------------------      

   * xtb version 6.6.1 (unknown) compiled by 'builduser@buildhost' on 2023-08-07

   xtb is free software: you can redistribute it and/or modify it under
   the terms of the GNU Lesser General Public License as published by
   the Free Software Foundation, either version 3 of the License, or
   (at your option) any later version.
   
   xtb is distributed in the hope that it will be useful,
   but WITHOUT ANY WARRANTY; without even the implied warranty of
   MERCHANTABILITY or FITNESS FOR A PARTICULAR PURPOSE.  See the
   GNU Lesser General Public License for more details.
   
   Cite this work as:
   * C. Bannwarth, E. Caldeweyher, S. Ehlert, A. Hansen, P. Pracht,
     J. Seibert, S. Spicher, S. Grimme, WIREs Comput. Mol. Sci., 2020, 11,
     e01493. DOI: 10.1002/wcms.1493
   
   for GFN2-xTB:
   * C. Bannwarth, S. Ehlert and S. Grimme., J. Chem. Theory Comput., 2019,
     15, 1652-1671. DOI: 10.1021/acs.jctc.8b01176
   for GFN1-xTB:
   * S. Grimme, C. Bannwarth, P. Shushkov, J. Chem. Theory Comput., 2017,
     13, 1989-2009. DOI: 10.1021/acs.jctc.7b00118
   for GFN0-xTB:
   * P. Pracht, E. Caldeweyher, S. Ehlert, S. Grimme, ChemRxiv, 2019, preprint.
     DOI: 10.26434/chemrxiv.8326202.v1
   for GFN-FF:
   * S. Spicher and S. Grimme, Angew. Chem. Int. Ed., 2020, 59, 15665-15673.
     DOI: 10.1002/anie.202004239
   
   for ALPB and GBSA implicit solvation:
   * S. Ehlert, M. Stahn, S. Spicher, S. Grimme, J. Chem. Theory Comput.,
     2021, 17, 4250-4261. DOI: 10.1021/acs.jctc.1c00471
   
   for DFT-D4:
   * E. Caldeweyher, C. Bannwarth and S. Grimme, J. Chem. Phys., 2017,
     147, 034112. DOI: 10.1063/1.4993215
   * E. Caldeweyher, S. Ehlert, A. Hansen, H. Neugebauer, S. Spicher,
     C. Bannwarth and S. Grimme, J. Chem. Phys., 2019, 150, 154122.
     DOI: 10.1063/1.5090222
   * E. Caldeweyher, J.-M. Mewes, S. Ehlert and S. Grimme, Phys. Chem. Chem. Phys.
     2020, 22, 8499-8512. DOI: 10.1039/D0CP00502A
   
   for sTDA-xTB:
   * S. Grimme and C. Bannwarth, J. Chem. Phys., 2016, 145, 054103.
     DOI: 10.1063/1.4959605
   
   in the mass-spec context:
   * V. Asgeirsson, C. Bauer and S. Grimme, Chem. Sci., 2017, 8, 4879.
     DOI: 10.1039/c7sc00601b
   * J. Koopman and S. Grimme, ACS Omega 2019, 4, 12, 15120-15133.
     DOI: 10.1021/acsomega.9b02011
   
   for metadynamics refer to:
   * S. Grimme, J. Chem. Theory Comput., 2019, 155, 2847-2862
     DOI: 10.1021/acs.jctc.9b00143
   
   for SPH calculations refer to:
   * S. Spicher and S. Grimme, J. Chem. Theory Comput., 2021, 17, 1701-1714
     DOI: 10.1021/acs.jctc.0c01306
   
   with help from (in alphabetical order)
   P. Atkinson, C. Bannwarth, F. Bohle, G. Brandenburg, E. Caldeweyher
   M. Checinski, S. Dohm, S. Ehlert, S. Ehrlich, I. Gerasimov, C. Hölzer
   A. Katbashev, J. Koopman, C. Lavigne, S. Lehtola, F. März, M. Müller,
   F. Musil, H. Neugebauer, J. Pisarek, C. Plett, P. Pracht, F. Pultar,
   J. Seibert, P. Shushkov, S. Spicher, M. Stahn, M. Steiner, T. Strunk,
   J. Stückrath, T. Rose, and J. Unsleber
   
 * started run on 2026/04/17 at 12:14:39.564     

           -------------------------------------------------
          |                Calculation Setup                |
           -------------------------------------------------

          program call               : /usr/bin/xtb random_d1.70_006_m3_XTB.xyz --grad -c 0 -u 2 -P 1 --namespace random_d1.70_006_m3 --input random_d1.70_006_m3_XTB.input.tmp --acc 0.200000
          calculation namespace      : random_d1.70_006_m3
          coordinate file            : random_d1.70_006_m3_XTB.xyz
          omp threads                :                     1

   ID    Z sym.   atoms
    1    5 B      1-12

molecular fragmentation (1/2 indicates fragments):
122112121111
# atoms in fragment 1/2:     8     4
 fragment masses (1/2) :       86.49       43.24
CMA distance (Bohr)    :   5.812
constraining FC (au)   :  0.0500

           -------------------------------------------------
          |                 G F N 2 - x T B                 |
           -------------------------------------------------

        Reference                      10.1021/acs.jctc.8b01176
      * Hamiltonian:
        H0-scaling (s, p, d)           1.850000    2.230000    2.230000
        zeta-weighting                 0.500000
      * Dispersion:
        s8                             2.700000
        a1                             0.520000
        a2                             5.000000
        s9                             5.000000
      * Repulsion:
        kExp                           1.500000    1.000000
        rExp                           1.000000
      * Coulomb:
        alpha                          2.000000
        third order                    shell-resolved
        anisotropic                    true
        a3                             3.000000
        a5                             4.000000
        cn-shift                       1.200000
        cn-exp                         4.000000
        max-rad                        5.000000


          ...................................................
          :                      SETUP                      :
          :.................................................:
          :  # basis functions                  48          :
          :  # atomic orbitals                  48          :
          :  # shells                           24          :
          :  # electrons                        36          :
          :  max. iterations                   250          :
          :  Hamiltonian                  GFN2-xTB          :
          :  restarted?                      false          :
          :  GBSA solvation                  false          :
          :  PC potential                    false          :
          :  electronic temp.          300.0000000     K    :
          :  accuracy                    0.2000000          :
          :  -> integral cutoff          0.3198970E+02      :
          :  -> integral neglect         0.2000000E-08      :
          :  -> SCF convergence          0.2000000E-06 Eh   :
          :  -> wf. convergence          0.2000000E-04 e    :
          :  Broyden damping             0.4000000          :
          ...................................................

 iter      E             dE          RMSdq      gap      omega  full diag
   1    -12.6509364 -0.126509E+02  0.196E+01    0.06       0.0  T
   2      8.3451710  0.209961E+02  0.251E+01    0.43       1.0  T
   3     34.4838088  0.261386E+02  0.305E+01    0.12       1.0  T
   4      5.8449084 -0.286389E+02  0.243E+01    0.19       1.0  T
   5     -6.4819420 -0.123269E+02  0.165E+01    0.26       1.0  T
   6     -5.4323166  0.104963E+01  0.170E+01    0.07       1.0  T
   7     -8.2741701 -0.284185E+01  0.131E+01    0.19       1.0  T
   8     -8.5245436 -0.250374E+00  0.133E+01    0.20       1.0  T
   9     -9.2006615 -0.676118E+00  0.121E+01    0.19       1.0  T
  10    -10.7314458 -0.153078E+01  0.113E+01    0.31       1.0  T
  11    -12.5944434 -0.186300E+01  0.850E+00    0.26       1.0  T
  12    -12.4102134  0.184230E+00  0.848E+00    0.26       1.0  T
  13    -12.4230920 -0.128786E-01  0.822E+00    0.29       1.0  T
  14    -12.4400946 -0.170026E-01  0.812E+00    0.29       1.0  T
  15    -12.4464677 -0.637310E-02  0.801E+00    0.29       1.0  T
  16    -12.2479396  0.198528E+00  0.798E+00    0.29       1.0  T
  17    -11.3891153  0.858824E+00  0.735E+00    0.06       1.0  T
  18    -12.6662067 -0.127709E+01  0.659E+00    0.24       1.0  T
  19    -12.5929980  0.732087E-01  0.602E+00    0.23       1.0  T
  20    -12.8239114 -0.230913E+00  0.532E+00    0.18       1.0  T
  21    -12.7923431  0.315684E-01  0.536E+00    0.20       1.0  T
  22    -12.7839654  0.837765E-02  0.529E+00    0.19       1.0  T
  23    -13.1276492 -0.343684E+00  0.374E+00    0.14       1.0  T
  24    -13.2232537 -0.956044E-01  0.304E+00    0.09       1.0  T
  25    -13.2200451  0.320852E-02  0.294E+00    0.10       1.0  T
  26    -13.2066889  0.133562E-01  0.290E+00    0.12       1.0  T
  27    -13.2338279 -0.271389E-01  0.238E+00    0.09       1.0  T
  28    -13.2118737  0.219542E-01  0.253E+00    0.10       1.0  T
  29    -13.2359497 -0.240760E-01  0.215E+00    0.09       1.0  T
  30    -13.2488832 -0.129336E-01  0.194E+00    0.09       1.0  T
  31    -13.2809938 -0.321106E-01  0.148E+00    0.06       1.0  T
  32    -13.2817011 -0.707214E-03  0.147E+00    0.06       1.0  T
  33    -13.2857373 -0.403628E-02  0.148E+00    0.03       1.0  T
  34    -13.3012335 -0.154961E-01  0.105E+00    0.04       1.0  T
  35    -13.2950725  0.616095E-02  0.113E+00    0.05       1.0  T
  36    -13.3006123 -0.553977E-02  0.948E-01    0.04       1.0  T
  37    -13.3010883 -0.475995E-03  0.887E-01    0.05       1.0  T
  38    -13.3075251 -0.643678E-02  0.647E-01    0.05       1.0  T
  39    -13.3106403 -0.311519E-02  0.506E-01    0.04       1.0  T
  40    -13.3142172 -0.357691E-02  0.279E-01    0.04       1.0  T
  41    -13.3141445  0.726646E-04  0.281E-01    0.04       1.0  T
  42    -13.3145566 -0.412088E-03  0.159E-01    0.04       1.0  T
  43    -13.3145539  0.266334E-05  0.140E-01    0.04       1.0  T
  44    -13.3142695  0.284408E-03  0.175E-01    0.04       1.0  T
  45    -13.3142185  0.510313E-04  0.191E-01    0.04       1.0  T
  46    -13.3145938 -0.375321E-03  0.953E-02    0.04       1.0  T
  47    -13.3146008 -0.696704E-05  0.956E-02    0.04       1.0  T
  48    -13.3146703 -0.695574E-04  0.615E-02    0.04       1.0  T
  49    -13.3146950 -0.246578E-04  0.383E-02    0.04       1.0  T
  50    -13.3146980 -0.299492E-05  0.361E-02    0.04       1.0  T
  51    -13.3147047 -0.675315E-05  0.277E-02    0.04       1.0  T
  52    -13.3147071 -0.235744E-05  0.228E-02    0.04       1.3  T
  53    -13.3147098 -0.269403E-05  0.150E-02    0.04       1.9  T
  54    -13.3147105 -0.663128E-06  0.120E-02    0.04       2.4  T
  55    -13.3147118 -0.134858E-05  0.499E-03    0.04       5.8  T
  56    -13.3147120 -0.153474E-06  0.344E-03    0.04       8.4  T
  57    -13.3147121 -0.136288E-06  0.186E-03    0.04      15.6  T
  58    -13.3147121 -0.464598E-07  0.744E-04    0.04      38.8  T
  59    -13.3147121 -0.270125E-08  0.588E-04    0.04      49.1  T
  60    -13.3147121 -0.160815E-08  0.337E-04    0.04      85.6  T
  61    -13.3147121 -0.385775E-09  0.205E-04    0.04     140.9  T
  62    -13.3147121 -0.157153E-09  0.132E-04    0.04     218.3  T
  63    -13.3147121  0.373355E-10  0.109E-04    0.04     264.1  T

   *** convergence criteria satisfied after 63 iterations ***

         #    Occupation            Energy/Eh            Energy/eV
      -------------------------------------------------------------
         1        2.0000           -0.4212872             -11.4638
       ...           ...                  ...                  ...
        13        2.0000           -0.2800607              -7.6208
        14        2.0000           -0.2772170              -7.5435
        15        2.0000           -0.2736178              -7.4455
        16        1.9991           -0.2608142              -7.0971
        17        1.9814           -0.2578801              -7.0173
        18        0.9804           -0.2502854              -6.8106
        19        0.6999           -0.2479891              -6.7481 (HOMO)
        20        0.3385           -0.2465537              -6.7091 (LUMO)
        21        0.0006           -0.2401914              -6.5359
        22        0.0000           -0.2373074              -6.4575
        23        0.0000           -0.2334804              -6.3533
        24                         -0.2316031              -6.3022
       ...                                ...                  ...
        48                          1.1242327              30.5919
      -------------------------------------------------------------
                  HL-Gap            0.0014355 Eh            0.0391 eV
             Fermi-level           -0.2506517 Eh           -6.8206 eV

 transition dipole moment (au) for excitation:          18          19
     X       Y       Z   
   0.9537   1.1335   0.2896  total (au/Debye):    1.509   3.837
 dE (eV)             :    0.062
 oscillator strength :  0.49324E-02

 SCC (total)                   0 d,  0 h,  0 min,  0.077 sec
 SCC setup                      ...        0 min,  0.000 sec (  0.204%)
 Dispersion                     ...        0 min,  0.000 sec (  0.152%)
 classical contributions        ...        0 min,  0.000 sec (  0.038%)
 integral evaluation            ...        0 min,  0.002 sec (  3.215%)
 iterations                     ...        0 min,  0.066 sec ( 85.132%)
 molecular gradient             ...        0 min,  0.005 sec (  6.981%)
 printout                       ...        0 min,  0.003 sec (  4.241%)

         :::::::::::::::::::::::::::::::::::::::::::::::::::::
         ::                     SUMMARY                     ::
         :::::::::::::::::::::::::::::::::::::::::::::::::::::
         :: total energy             -13.218880327647 Eh    ::
         :: gradient norm              0.252633268536 Eh/a0 ::
         :: HOMO-LUMO gap              0.039060877774 eV    ::
         ::.................................................::
         :: SCC energy               -13.314712145907 Eh    ::
         :: -> isotropic ES            0.058264329312 Eh    ::
         :: -> anisotropic ES          0.000072308012 Eh    ::
         :: -> anisotropic XC         -0.033843571463 Eh    ::
         :: -> dispersion             -0.020103708781 Eh    ::
         :: repulsion energy           0.095621033428 Eh    ::
         :: add. restraining           0.000000000000 Eh    ::
         :: total charge               0.000000000000 e     ::
         :::::::::::::::::::::::::::::::::::::::::::::::::::::


Property printout bound to 'properties.out'

           -------------------------------------------------
          | TOTAL ENERGY              -13.218880327647 Eh   |
          | GRADIENT NORM               0.252633268536 Eh/α |
          | HOMO-LUMO GAP               0.039060877774 eV   |
           -------------------------------------------------

------------------------------------------------------------------------
 * finished run on 2026/04/17 at 12:14:39.659     
------------------------------------------------------------------------
 total:
 * wall-time:     0 d,  0 h,  0 min,  0.094 sec
 *  cpu-time:     0 d,  0 h,  0 min,  0.094 sec
 * ratio c/w:     0.999 speedup
 SCF:
 * wall-time:     0 d,  0 h,  0 min,  0.077 sec
 *  cpu-time:     0 d,  0 h,  0 min,  0.077 sec
 * ratio c/w:     1.000 speedup


-------------------------   --------------------
FINAL SINGLE POINT ENERGY       -13.218880327650
-------------------------   --------------------


-------------
DIPOLE MOMENT
-------------
                                X             Y             Z
Total Dipole Moment    :     -1.44600      -0.27000       0.04300
                        -----------------------------------------
Magnitude (a.u.)       :      1.47162
Magnitude (Debye)      :      3.74056


------------------
CARTESIAN GRADIENT
------------------

   1   B   :   -0.011728915   -0.014488213    0.055844447
   2   B   :    0.028593669    0.011417380    0.031749716
   3   B   :    0.007293252    0.008711241   -0.046290337
   4   B   :   -0.081732535    0.003188741    0.068484826
   5   B   :   -0.020526601   -0.027432481   -0.053312031
   6   B   :    0.014189617   -0.088265615    0.027537133
   7   B   :   -0.038029735   -0.015699973    0.015156239
   8   B   :    0.016641555    0.057643499   -0.024077794
   9   B   :   -0.039167390   -0.030771160    0.064043405
  10   B   :    0.039817750    0.007235392   -0.066434101
  11   B   :    0.055133420    0.008581286   -0.047277062
  12   B   :    0.029515912    0.079879902   -0.025424443

Difference to translation invariance:
           :   -0.0000000000   -0.0000000000   -0.0000000000

Difference to rotation invariance:
           :   -0.0000000784   -0.0000000198    0.0000000016

Norm of the Cartesian gradient     ...    0.2526332685
RMS gradient                       ...    0.0421055448
MAX gradient                       ...    0.0882656146
------------------------------------------------------------------------------
                         ORCA GEOMETRY RELAXATION STEP
------------------------------------------------------------------------------

Reading the OPT-File                    .... done
Getting information on internals        .... done
Copying old internal coords+grads       .... done
Making the new internal coordinates     .... (2022 redundants) done
Validating the new internal coordinates .... (2022 redundants) done
Calculating the B-matrix                .... done
Calculating the G,G- and P matrices     .... done
Transforming gradient to internals      .... done
Projecting the internal gradient        .... done
Number of atoms                         ....  12
Number of internal coordinates          ....  85
Current Energy                          ....   -13.218880328 Eh
Current gradient norm                   ....     0.252633269 Eh/bohr
Maximum allowed component of the step   ....  0.300
Current trust radius                    ....  0.300
Evaluating the initial hessian          ....  (Almloef) done
Projecting the Hessian                  .... done
Forming the augmented Hessian           .... done
Diagonalizing the augmented Hessian     .... done
Last element of RFO vector              ....  0.784661160
Lowest eigenvalues of augmented Hessian:
 -0.145860998  0.010000000  0.010000000  0.010672743  0.011750155
Length of the computed step             ....  0.790054253
Warning: the length of the step is outside the trust region - taking restricted step instead
The input lambda is                     ....     0.009000
   iter:   5  x=    0.000280  g=30634.446918 f(x)=   110.121049
   iter:  10  x=   -0.094928  g=   55.409836 f(x)=     2.259408
   iter:  15  x=   -0.515720  g=    0.370366 f(x)=     0.017131
The output lambda is                    ....    -0.522302 (19 iterations)
The final length of the internal step   ....  0.300000000
Converting the step to Cartesian space:
 Initial RMS(Int)=    0.0325395687
Transforming coordinates:
 Iter   0:  RMS(Cart)=    0.2558494231 RMS(Int)=    0.0318259228
 Iter   5:  RMS(Cart)=    0.0000009364 RMS(Int)=    0.0000012710
done
Storing new coordinates                 .... done

                                .--------------------.
          ----------------------|Geometry convergence|-------------------------
          Item                value                   Tolerance       Converged
          ---------------------------------------------------------------------
          RMS gradient        0.0215207371            0.0000300000      NO
          MAX gradient        0.0910115448            0.0001000000      NO
          RMS step            0.0325395687            0.0006000000      NO
          MAX step            0.1281857720            0.0010000000      NO
          -------------------------------------------------------------------------
          ........................................................
          Max(Bonds)      0.0678      Max(Angles)    2.70
          Max(Dihed)        3.49      Max(Improp)    0.00
          ---------------------------------------------------------------------

The optimization has not yet converged - more geometry cycles are needed


    ---------------------------------------------------------------------------
                         Redundant Internal Coordinates
                            (Angstroem and degrees)

        Definition                    Value    dE/dq     Step     New-Value
    ----------------------------------------------------------------------------
     1. B(B   4,B   2)                2.8503  0.018143 -0.0174    2.8329   
     2. B(B   5,B   1)                2.8765  0.022952 -0.0218    2.8547   
     3. B(B   6,B   2)                3.2187  0.015564 -0.0147    3.2040   
     4. B(B   6,B   5)                2.4975  0.035779 -0.0328    2.4647   
     5. B(B   6,B   4)                1.5066  0.028640 -0.0147    1.4918   
     6. B(B   7,B   2)                2.8210  0.026750 -0.0268    2.7942   
     7. B(B   7,B   1)                2.7250  0.026804 -0.0262    2.6988   
     8. B(B   7,B   6)                2.4902  0.020295 -0.0207    2.4695   
     9. B(B   7,B   5)                1.5866  0.053239 -0.0340    1.5526   
    10. B(B   8,B   4)                2.0533  0.073203 -0.0650    1.9882   
    11. B(B   9,B   3)                1.4695 -0.033517  0.0154    1.4850   
    12. B(B   9,B   0)                1.8025  0.057957 -0.0434    1.7591   
    13. B(B  10,B   3)                1.9140  0.072828 -0.0598    1.8542   
    14. B(B  11,B   8)                1.7974  0.091012 -0.0678    1.7295   
    15. B(B  11,B   9)                1.5519  0.007416 -0.0040    1.5479   
    16. A(B   5,B   1,B   7)           32.77  0.007838   -0.45     32.32   
    17. A(B   4,B   2,B   6)           27.91  0.003961   -0.16     27.75   
    18. A(B   6,B   2,B   7)           48.15  0.000918   -0.12     48.03   
    19. A(B   4,B   2,B   7)           72.46  0.004204   -0.25     72.20   
    20. A(B   9,B   3,B  10)          164.69 -0.001797    0.12    164.81   
    21. A(B   6,B   4,B   8)          100.63  0.011244   -0.96     99.66   
    22. A(B   2,B   4,B   8)          113.87  0.011346   -1.12    112.75   
    23. A(B   2,B   4,B   6)           89.77 -0.005463    0.32     90.10   
    24. A(B   1,B   5,B   7)           68.36 -0.000942   -0.05     68.31   
    25. A(B   6,B   5,B   7)           71.20 -0.008768    0.61     71.82   
    26. A(B   1,B   5,B   6)          116.74 -0.004981    0.20    116.94   
    27. A(B   2,B   6,B   5)           86.03  0.008735   -0.60     85.43   
    28. A(B   2,B   6,B   4)           62.32  0.001502   -0.17     62.15   
    29. A(B   5,B   6,B   7)           37.10  0.007909   -0.41     36.69   
    30. A(B   4,B   6,B   5)          147.21  0.010703   -0.78    146.43   
    31. A(B   2,B   6,B   7)           57.54  0.002401   -0.27     57.27   
    32. A(B   4,B   6,B   7)          111.61  0.002800   -0.37    111.25   
    33. A(B   1,B   7,B   6)          122.79 -0.002095    0.00    122.79   
    34. A(B   1,B   7,B   5)           78.87 -0.006895    0.50     79.37   
    35. A(B   1,B   7,B   2)          156.52  0.008061   -0.58    155.94   
    36. A(B   2,B   7,B   6)           74.31 -0.003318    0.39     74.70   
    37. A(B   2,B   7,B   5)          124.02 -0.000933    0.07    124.08   
    38. A(B   5,B   7,B   6)           71.70  0.000859   -0.20     71.50   
    39. A(B   4,B   8,B  11)          121.91  0.032842   -2.41    119.50   
    40. A(B   3,B   9,B  11)          109.72 -0.000283   -0.08    109.65   
    41. A(B   0,B   9,B  11)          115.05  0.014735   -1.08    113.97   
    42. A(B   0,B   9,B   3)          133.29 -0.006683    0.33    133.62   
    43. A(B   8,B  11,B   9)           89.61  0.040880   -2.70     86.92   
    44. D(B   8,B   4,B   2,B   6)    101.53  0.010850   -1.01    100.53   
    45. D(B   6,B   4,B   2,B   7)    -26.08 -0.000575    0.02    -26.06   
    46. D(B   8,B   4,B   2,B   7)     75.46  0.010274   -0.99     74.47   
    47. D(B   6,B   5,B   1,B   7)    -53.98  0.008953   -0.65    -54.63   
    48. D(B   7,B   6,B   2,B   4)   -145.76  0.001146   -0.01   -145.77   
    49. D(B   4,B   6,B   5,B   1)     74.87 -0.004044    0.27     75.15   
    50. D(B   5,B   6,B   4,B   2)     16.46 -0.001023    0.00     16.47   
    51. D(B   4,B   6,B   2,B   7)    145.76 -0.001146    0.01    145.77   
    52. D(B   4,B   6,B   5,B   7)     22.29  0.001051   -0.05     22.25   
    53. D(B   5,B   6,B   2,B   7)    -25.39 -0.004366    0.21    -25.18   
    54. D(B   2,B   6,B   5,B   1)     89.45 -0.004897    0.26     89.71   
    55. D(B   7,B   6,B   5,B   1)     52.58 -0.005095    0.32     52.90   
    56. D(B   7,B   6,B   4,B   2)     30.71  0.002566   -0.20     30.51   
    57. D(B   5,B   6,B   4,B   8)    -97.80 -0.012391    1.16    -96.64   
    58. D(B   5,B   6,B   2,B   4)   -171.15 -0.003221    0.20   -170.95   
    59. D(B   2,B   6,B   5,B   7)     36.86  0.000199   -0.06     36.81   
    60. D(B   2,B   6,B   4,B   8)   -114.27 -0.011368    1.16   -113.11   
    61. D(B   7,B   6,B   4,B   8)    -83.56 -0.008802    0.96    -82.60   
    62. D(B   5,B   7,B   6,B   4)   -167.23 -0.002932    0.22   -167.02   
    63. D(B   2,B   7,B   5,B   1)    174.26  0.002023   -0.12    174.14   
    64. D(B   2,B   7,B   5,B   6)    -55.47  0.003222   -0.31    -55.78   
    65. D(B   6,B   7,B   5,B   1)   -130.27 -0.001199    0.19   -130.08   
    66. D(B   1,B   7,B   2,B   6)   -139.92 -0.000649    0.06   -139.86   
    67. D(B   1,B   7,B   2,B   4)   -123.88  0.001602   -0.01   -123.89   
    68. D(B   6,B   7,B   2,B   4)     16.04  0.002251   -0.07     15.97   
    69. D(B   1,B   7,B   5,B   6)    130.27  0.001199   -0.19    130.08   
    70. D(B   5,B   7,B   2,B   6)     54.34 -0.001394    0.05     54.39   
    71. D(B   5,B   7,B   2,B   4)     70.37  0.000857   -0.02     70.35   
    72. D(B   2,B   7,B   1,B   5)   -167.99 -0.000201   -0.04   -168.03   
    73. D(B   5,B   7,B   6,B   2)   -134.82 -0.000659    0.06   -134.76   
    74. D(B   6,B   7,B   1,B   5)     59.51 -0.003534    0.16     59.67   
    75. D(B   2,B   7,B   6,B   4)    -32.41 -0.002273    0.16    -32.25   
    76. D(B   1,B   7,B   6,B   2)    162.23  0.006626   -0.45    161.78   
    77. D(B   1,B   7,B   6,B   5)    -62.95  0.007285   -0.51    -63.45   
    78. D(B   1,B   7,B   6,B   4)    129.82  0.004353   -0.29    129.53   
    79. D(B  11,B   8,B   4,B   2)     19.09  0.020201   -2.09     17.00   
    80. D(B  11,B   8,B   4,B   6)    113.60  0.021792   -2.43    111.18   
    81. D(B  11,B   9,B   3,B  10)     -0.12 -0.014995    1.54      1.43   
    82. D(B   0,B   9,B   3,B  10)    162.75  0.021353   -2.22    160.53   
    83. D(B   8,B  11,B   9,B   3)    114.71  0.032301   -3.49    111.22   
    84. D(B   8,B  11,B   9,B   0)    -51.60  0.006787   -0.72    -52.32   
    85. D(B   9,B  11,B   8,B   4)   -103.96 -0.022653    2.44   -101.52   
    ----------------------------------------------------------------------------

Geometry step timings:
Preparation and reading OPT file:      0.000 s ( 3.006 %)
Internal coordinates            :      0.000 s ( 1.308 %)
B/P matrices and projection     :      0.001 s (20.206 %)
Hessian update/contruction      :      0.001 s (15.586 %)
Making the step                 :      0.001 s (33.704 %)
Converting the step to Cartesian:      0.000 s ( 3.841 %)
Storing new data                :      0.000 s ( 1.531 %)
Checking convergence            :      0.000 s ( 1.058 %)
Final printing                  :      0.001 s (19.649 %)
Total time                      :      0.004 s

Time for energy+gradient        :      0.105 s
Time for complete geometry iter :      0.111 s

         *************************************************************
         *                GEOMETRY OPTIMIZATION CYCLE   2            *
         *************************************************************
---------------------------------
CARTESIAN COORDINATES (ANGSTROEM)
---------------------------------
  B    -1.111330    1.065561    2.461931
  B     2.742429   -0.843003    1.838754
  B     0.206654   -0.476748   -2.883389
  B     0.843282    1.432160    0.237785
  B    -1.969011   -0.980499   -1.140344
  B     1.186929   -2.602073    0.215494
  B    -1.108896   -1.886066   -0.324367
  B     1.254591   -1.173328   -0.388527
  B    -2.255035    0.482725    0.175054
  B    -0.457769    1.624303    0.927317
  B     2.205736    1.325552   -1.015334
  B    -1.537578    2.031417   -0.104374

----------------------------
CARTESIAN COORDINATES (A.U.)
----------------------------
  NO LB    ZA    FRAG    MASS        X           Y           Z
   0 B   5.0000    0    10.810   -2.100109    2.013619    4.652375
   1 B   5.0000    0    10.810    5.182440   -1.593044    3.474741
   2 B   5.0000    0    10.810    0.390519   -0.900923   -5.448816
   3 B   5.0000    0    10.810    1.593571    2.706389    0.449349
   4 B   5.0000    0    10.810   -3.720892   -1.852875   -2.154937
   5 B   5.0000    0    10.810    2.242971   -4.917205    0.407225
   6 B   5.0000    0    10.810   -2.095510   -3.564149   -0.612965
   7 B   5.0000    0    10.810    2.370834   -2.217269   -0.734209
   8 B   5.0000    0    10.810   -4.261399    0.912217    0.330805
   9 B   5.0000    0    10.810   -0.865059    3.069488    1.752374
  10 B   5.0000    0    10.810    4.168237    2.504930   -1.918703
  11 B   5.0000    0    10.810   -2.905602    3.838822   -0.197239

      -----------------------------------------------------------      
     |                   =====================                   |     
     |                           x T B                           |     
     |                   =====================                   |     
     |                         S. Grimme                         |     
     |          Mulliken Center for Theoretical Chemistry        |     
     |                    University of Bonn                     |     
      -----------------------------------------------------------      

   * xtb version 6.6.1 (unknown) compiled by 'builduser@buildhost' on 2023-08-07

   xtb is free software: you can redistribute it and/or modify it under
   the terms of the GNU Lesser General Public License as published by
   the Free Software Foundation, either version 3 of the License, or
   (at your option) any later version.
   
   xtb is distributed in the hope that it will be useful,
   but WITHOUT ANY WARRANTY; without even the implied warranty of
   MERCHANTABILITY or FITNESS FOR A PARTICULAR PURPOSE.  See the
   GNU Lesser General Public License for more details.
   
   Cite this work as:
   * C. Bannwarth, E. Caldeweyher, S. Ehlert, A. Hansen, P. Pracht,
     J. Seibert, S. Spicher, S. Grimme, WIREs Comput. Mol. Sci., 2020, 11,
     e01493. DOI: 10.1002/wcms.1493
   
   for GFN2-xTB:
   * C. Bannwarth, S. Ehlert and S. Grimme., J. Chem. Theory Comput., 2019,
     15, 1652-1671. DOI: 10.1021/acs.jctc.8b01176
   for GFN1-xTB:
   * S. Grimme, C. Bannwarth, P. Shushkov, J. Chem. Theory Comput., 2017,
     13, 1989-2009. DOI: 10.1021/acs.jctc.7b00118
   for GFN0-xTB:
   * P. Pracht, E. Caldeweyher, S. Ehlert, S. Grimme, ChemRxiv, 2019, preprint.
     DOI: 10.26434/chemrxiv.8326202.v1
   for GFN-FF:
   * S. Spicher and S. Grimme, Angew. Chem. Int. Ed., 2020, 59, 15665-15673.
     DOI: 10.1002/anie.202004239
   
   for ALPB and GBSA implicit solvation:
   * S. Ehlert, M. Stahn, S. Spicher, S. Grimme, J. Chem. Theory Comput.,
     2021, 17, 4250-4261. DOI: 10.1021/acs.jctc.1c00471
   
   for DFT-D4:
   * E. Caldeweyher, C. Bannwarth and S. Grimme, J. Chem. Phys., 2017,
     147, 034112. DOI: 10.1063/1.4993215
   * E. Caldeweyher, S. Ehlert, A. Hansen, H. Neugebauer, S. Spicher,
     C. Bannwarth and S. Grimme, J. Chem. Phys., 2019, 150, 154122.
     DOI: 10.1063/1.5090222
   * E. Caldeweyher, J.-M. Mewes, S. Ehlert and S. Grimme, Phys. Chem. Chem. Phys.
     2020, 22, 8499-8512. DOI: 10.1039/D0CP00502A
   
   for sTDA-xTB:
   * S. Grimme and C. Bannwarth, J. Chem. Phys., 2016, 145, 054103.
     DOI: 10.1063/1.4959605
   
   in the mass-spec context:
   * V. Asgeirsson, C. Bauer and S. Grimme, Chem. Sci., 2017, 8, 4879.
     DOI: 10.1039/c7sc00601b
   * J. Koopman and S. Grimme, ACS Omega 2019, 4, 12, 15120-15133.
     DOI: 10.1021/acsomega.9b02011
   
   for metadynamics refer to:
   * S. Grimme, J. Chem. Theory Comput., 2019, 155, 2847-2862
     DOI: 10.1021/acs.jctc.9b00143
   
   for SPH calculations refer to:
   * S. Spicher and S. Grimme, J. Chem. Theory Comput., 2021, 17, 1701-1714
     DOI: 10.1021/acs.jctc.0c01306
   
   with help from (in alphabetical order)
   P. Atkinson, C. Bannwarth, F. Bohle, G. Brandenburg, E. Caldeweyher
   M. Checinski, S. Dohm, S. Ehlert, S. Ehrlich, I. Gerasimov, C. Hölzer
   A. Katbashev, J. Koopman, C. Lavigne, S. Lehtola, F. März, M. Müller,
   F. Musil, H. Neugebauer, J. Pisarek, C. Plett, P. Pracht, F. Pultar,
   J. Seibert, P. Shushkov, S. Spicher, M. Stahn, M. Steiner, T. Strunk,
   J. Stückrath, T. Rose, and J. Unsleber
   
 * started run on 2026/04/17 at 12:14:39.674     

           -------------------------------------------------
          |                Calculation Setup                |
           -------------------------------------------------

          program call               : /usr/bin/xtb random_d1.70_006_m3_XTB.xyz --grad -c 0 -u 2 -P 1 --namespace random_d1.70_006_m3 --input random_d1.70_006_m3_XTB.input.tmp --acc 0.200000
          calculation namespace      : random_d1.70_006_m3
          coordinate file            : random_d1.70_006_m3_XTB.xyz
          omp threads                :                     1

   ID    Z sym.   atoms
    1    5 B      1-12

molecular fragmentation (1/2 indicates fragments):
122112121111
# atoms in fragment 1/2:     8     4
 fragment masses (1/2) :       86.49       43.24
CMA distance (Bohr)    :   5.327
constraining FC (au)   :  0.0500

           -------------------------------------------------
          |                 G F N 2 - x T B                 |
           -------------------------------------------------

        Reference                      10.1021/acs.jctc.8b01176
      * Hamiltonian:
        H0-scaling (s, p, d)           1.850000    2.230000    2.230000
        zeta-weighting                 0.500000
      * Dispersion:
        s8                             2.700000
        a1                             0.520000
        a2                             5.000000
        s9                             5.000000
      * Repulsion:
        kExp                           1.500000    1.000000
        rExp                           1.000000
      * Coulomb:
        alpha                          2.000000
        third order                    shell-resolved
        anisotropic                    true
        a3                             3.000000
        a5                             4.000000
        cn-shift                       1.200000
        cn-exp                         4.000000
        max-rad                        5.000000

q/qsh data taken from xtbrestart
CAMM data taken from xtbrestart

          ...................................................
          :                      SETUP                      :
          :.................................................:
          :  # basis functions                  48          :
          :  # atomic orbitals                  48          :
          :  # shells                           24          :
          :  # electrons                        36          :
          :  max. iterations                   250          :
          :  Hamiltonian                  GFN2-xTB          :
          :  restarted?                       true          :
          :  GBSA solvation                  false          :
          :  PC potential                    false          :
          :  electronic temp.          300.0000000     K    :
          :  accuracy                    0.2000000          :
          :  -> integral cutoff          0.3198970E+02      :
          :  -> integral neglect         0.2000000E-08      :
          :  -> SCF convergence          0.2000000E-06 Eh   :
          :  -> wf. convergence          0.2000000E-04 e    :
          :  Broyden damping             0.4000000          :
          ...................................................

 iter      E             dE          RMSdq      gap      omega  full diag
   1    -13.3844175 -0.133844E+02  0.365E+00    0.04       0.0  T
   2    -12.6108174  0.773600E+00  0.611E+00    0.13       1.0  T
   3    -10.9869773  0.162384E+01  0.994E+00    0.15       1.0  T
   4    -11.9465842 -0.959607E+00  0.825E+00    0.06       1.0  T
   5    -12.0615245 -0.114940E+00  0.736E+00    0.03       1.0  T
   6    -11.5858502  0.475674E+00  0.898E+00    0.18       1.0  T
   7    -12.1666316 -0.580781E+00  0.734E+00    0.05       1.0  T
   8    -12.8542259 -0.687594E+00  0.485E+00    0.14       1.0  T
   9    -12.7987709  0.554550E-01  0.520E+00    0.08       1.0  T
  10    -10.4074229  0.239135E+01  0.108E+01    0.12       1.0  T
  11    -12.9293629 -0.252194E+01  0.429E+00    0.03       1.0  T
  12    -13.1172862 -0.187923E+00  0.359E+00    0.02       1.0  T
  13    -13.1951800 -0.778938E-01  0.289E+00    0.13       1.0  T
  14    -13.3169492 -0.121769E+00  0.200E+00    0.08       1.0  T
  15    -13.3184890 -0.153978E-02  0.199E+00    0.09       1.0  T
  16    -13.3160771  0.241189E-02  0.195E+00    0.09       1.0  T
  17    -13.3415217 -0.254446E-01  0.160E+00    0.07       1.0  T
  18    -13.3723555 -0.308338E-01  0.103E+00    0.03       1.0  T
  19    -13.3725754 -0.219887E-03  0.100E+00    0.03       1.0  T
  20    -13.3781818 -0.560636E-02  0.888E-01    0.02       1.0  T
  21    -13.3808139 -0.263210E-02  0.851E-01    0.02       1.0  T
  22    -13.3754091  0.540478E-02  0.964E-01    0.02       1.0  T
  23    -13.3860120 -0.106030E-01  0.804E-01    0.01       1.0  T
  24    -13.3898107 -0.379865E-02  0.690E-01    0.02       1.0  T
  25    -13.3907130 -0.902332E-03  0.523E-01    0.01       1.0  T
  26    -13.3916320 -0.919003E-03  0.457E-01    0.01       1.0  T
  27    -13.3921705 -0.538414E-03  0.419E-01    0.02       1.0  T
  28    -13.3929566 -0.786120E-03  0.370E-01    0.02       1.0  T
  29    -13.3933857 -0.429136E-03  0.342E-01    0.03       1.0  T
  30    -13.3928540  0.531665E-03  0.365E-01    0.03       1.0  T
  31    -13.3927262  0.127877E-03  0.377E-01    0.03       1.0  T
  32    -13.3939535 -0.122735E-02  0.253E-01    0.03       1.0  T
  33    -13.3946427 -0.689194E-03  0.173E-01    0.03       1.0  T
  34    -13.3948469 -0.204219E-03  0.135E-01    0.03       1.0  T
  35    -13.3949177 -0.707579E-04  0.114E-01    0.03       1.0  T
  36    -13.3950171 -0.993885E-04  0.670E-02    0.03       1.0  T
  37    -13.3950188 -0.171953E-05  0.602E-02    0.03       1.0  T
  38    -13.3950263 -0.754667E-05  0.488E-02    0.03       1.0  T
  39    -13.3950517 -0.253584E-04  0.257E-02    0.03       1.1  T
  40    -13.3950547 -0.298636E-05  0.197E-02    0.03       1.5  T
  41    -13.3950580 -0.335682E-05  0.125E-02    0.03       2.3  T
  42    -13.3950595 -0.143631E-05  0.906E-03    0.03       3.2  T
  43    -13.3950602 -0.738660E-06  0.533E-03    0.03       5.4  T
  44    -13.3950602  0.242071E-07  0.479E-03    0.03       6.0  T
  45    -13.3950602 -0.459318E-07  0.345E-03    0.03       8.4  T
  46    -13.3950602  0.232089E-07  0.336E-03    0.03       8.6  T
  47    -13.3950602 -0.288892E-08  0.306E-03    0.03       9.4  T
  48    -13.3950602 -0.265845E-07  0.253E-03    0.03      11.4  T
  49    -13.3950603 -0.356160E-07  0.167E-03    0.03      17.3  T
  50    -13.3950603 -0.178974E-07  0.686E-04    0.03      42.1  T
  51    -13.3950603 -0.308737E-08  0.248E-04    0.03     116.6  T
  52    -13.3950603 -0.298767E-09  0.130E-04    0.03     222.6  T
  53    -13.3950603 -0.130665E-09  0.664E-05    0.03     434.6  T

   *** convergence criteria satisfied after 53 iterations ***

         #    Occupation            Energy/Eh            Energy/eV
      -------------------------------------------------------------
         1        2.0000           -0.4198461             -11.4246
       ...           ...                  ...                  ...
        13        2.0000           -0.2779342              -7.5630
        14        2.0000           -0.2746736              -7.4742
        15        2.0000           -0.2732566              -7.4357
        16        1.9997           -0.2585139              -7.0345
        17        1.9286           -0.2532957              -6.8925
        18        1.0673           -0.2484158              -6.7597
        19        0.6219           -0.2435705              -6.6279 (HOMO)
        20        0.3767           -0.2426208              -6.6020 (LUMO)
        21        0.0057           -0.2382024              -6.4818
        22        0.0000           -0.2321743              -6.3178
        23        0.0000           -0.2293395              -6.2406
        24                         -0.2236848              -6.0868
       ...                                ...                  ...
        48                          1.0876098              29.5954
      -------------------------------------------------------------
                  HL-Gap            0.0009497 Eh            0.0258 eV
             Fermi-level           -0.2469789 Eh           -6.7206 eV

 transition dipole moment (au) for excitation:          18          19
     X       Y       Z   
  -0.4076  -0.1627  -0.3258  total (au/Debye):    0.547   1.389
 dE (eV)             :    0.132
 oscillator strength :  0.13650E-02

 SCC (total)                   0 d,  0 h,  0 min,  0.062 sec
 SCC setup                      ...        0 min,  0.000 sec (  0.528%)
 Dispersion                     ...        0 min,  0.000 sec (  0.154%)
 classical contributions        ...        0 min,  0.000 sec (  0.047%)
 integral evaluation            ...        0 min,  0.002 sec (  3.639%)
 iterations                     ...        0 min,  0.047 sec ( 75.071%)
 molecular gradient             ...        0 min,  0.004 sec (  7.059%)
 printout                       ...        0 min,  0.008 sec ( 13.456%)

         :::::::::::::::::::::::::::::::::::::::::::::::::::::
         ::                     SUMMARY                     ::
         :::::::::::::::::::::::::::::::::::::::::::::::::::::
         :: total energy             -13.291501617479 Eh    ::
         :: gradient norm              0.247229045238 Eh/a0 ::
         :: HOMO-LUMO gap              0.025842528257 eV    ::
         ::.................................................::
         :: SCC energy               -13.395060297374 Eh    ::
         :: -> isotropic ES            0.061031729613 Eh    ::
         :: -> anisotropic ES         -0.000289884459 Eh    ::
         :: -> anisotropic XC         -0.029997525673 Eh    ::
         :: -> dispersion             -0.021505861650 Eh    ::
         :: repulsion energy           0.103399385369 Eh    ::
         :: add. restraining           0.000000000000 Eh    ::
         :: total charge              -0.000000000772 e     ::
         :::::::::::::::::::::::::::::::::::::::::::::::::::::


Property printout bound to 'properties.out'

           -------------------------------------------------
          | TOTAL ENERGY              -13.291501617479 Eh   |
          | GRADIENT NORM               0.247229045238 Eh/α |
          | HOMO-LUMO GAP               0.025842528257 eV   |
           -------------------------------------------------

------------------------------------------------------------------------
 * finished run on 2026/04/17 at 12:14:39.748     
------------------------------------------------------------------------
 total:
 * wall-time:     0 d,  0 h,  0 min,  0.074 sec
 *  cpu-time:     0 d,  0 h,  0 min,  0.074 sec
 * ratio c/w:     0.999 speedup
 SCF:
 * wall-time:     0 d,  0 h,  0 min,  0.062 sec
 *  cpu-time:     0 d,  0 h,  0 min,  0.062 sec
 * ratio c/w:     0.999 speedup


-------------------------   --------------------
FINAL SINGLE POINT ENERGY       -13.291501617480
-------------------------   --------------------


-------------
DIPOLE MOMENT
-------------
                                X             Y             Z
Total Dipole Moment    :     -1.06100      -0.29600      -0.12900
                        -----------------------------------------
Magnitude (a.u.)       :      1.10904
Magnitude (Debye)      :      2.81897


------------------
CARTESIAN GRADIENT
------------------

   1   B   :   -0.011405827   -0.014083789    0.057852274
   2   B   :    0.027466954    0.010057690    0.031298072
   3   B   :    0.002569381    0.004285863   -0.044447271
   4   B   :   -0.090072781    0.021321183    0.072366682
   5   B   :   -0.012415824   -0.033738230   -0.050659837
   6   B   :    0.021643436   -0.073147780    0.019789661
   7   B   :   -0.044775193   -0.008411276    0.009388772
   8   B   :    0.007713551    0.023521232   -0.015667956
   9   B   :   -0.042727095   -0.022886291    0.062280996
  10   B   :    0.038272528    0.003131726   -0.065106242
  11   B   :    0.071001990    0.020155615   -0.052893468
  12   B   :    0.032728879    0.069794059   -0.024201682

Difference to translation invariance:
           :    0.0000000000   -0.0000000000   -0.0000000000

Difference to rotation invariance:
           :    0.0000000286   -0.0000000077   -0.0000000031

Norm of the Cartesian gradient     ...    0.2472290452
RMS gradient                       ...    0.0412048409
MAX gradient                       ...    0.0900727806
------------------------------------------------------------------------------
                         ORCA GEOMETRY RELAXATION STEP
------------------------------------------------------------------------------

Reading the OPT-File                    .... done
Getting information on internals        .... done
Copying old internal coords+grads       .... done
Making the new internal coordinates     .... (2022 redundants) done
Validating the new internal coordinates .... (2022 redundants) done
Calculating the B-matrix                .... done
Calculating the G,G- and P matrices     .... done
Transforming gradient to internals      .... done
Projecting the internal gradient        .... done
Number of atoms                         ....  12
Number of internal coordinates          ....  85
Current Energy                          ....   -13.291501617 Eh
Current gradient norm                   ....     0.247229045 Eh/bohr
Maximum allowed component of the step   ....  0.300
Current trust radius                    ....  0.300
Updating the Hessian (BFGS)             .... done
Forming the augmented Hessian           .... done
Diagonalizing the augmented Hessian     .... done
Last element of RFO vector              ....  0.754421357
Lowest eigenvalues of augmented Hessian:
 -0.305419321  0.010000000  0.010000000  0.011225216  0.012267888
Length of the computed step             ....  0.870058143
Warning: the length of the step is outside the trust region - taking restricted step instead
The input lambda is                     ....     0.009000
   iter:   5  x=    0.002114  g=418882.393515 f(x)=  1129.281743
   iter:  10  x=   -0.058657  g=  857.364303 f(x)=    21.155648
   iter:  15  x=   -0.606850  g=    1.920239 f(x)=     0.383686
   iter:  20  x=   -1.069740  g=    0.150509 f(x)=     0.000006
The output lambda is                    ....    -1.069740 (22 iterations)
The final length of the internal step   ....  0.300000000
Converting the step to Cartesian space:
 Initial RMS(Int)=    0.0325395687
Transforming coordinates:
 Iter   0:  RMS(Cart)=    0.4422501485 RMS(Int)=    0.0320612570
 Iter   5:  RMS(Cart)=    0.0000754436 RMS(Int)=    0.0000208196
 Iter  10:  RMS(Cart)=    0.0000000424 RMS(Int)=    0.0000000339
Step has a component that is too large in Cartesian (1.710, max allowed 1.701)!
Will check both structures by computing the best RMSD.

The RMSD after the step is still OK, moving on in interal coordinates (0.765, max allowed 1.701).
done
Storing new coordinates                 .... done
The predicted energy change is          ....    -0.102546783
Previously predicted energy change      ....    -0.052831637
Actually observed energy change         ....    -0.072621290
Ratio of predicted to observed change   ....     1.374579595
New trust radius                        ....     0.300000000

                                .--------------------.
          ----------------------|Geometry convergence|-------------------------
          Item                value                   Tolerance       Converged
          ---------------------------------------------------------------------
          Energy change      -0.0726212898            0.0000010000      NO
          RMS gradient        0.0395667412            0.0000300000      NO
          MAX gradient        0.1628058403            0.0001000000      NO
          RMS step            0.0325395687            0.0006000000      NO
          MAX step            0.1225767995            0.0010000000      NO
          -------------------------------------------------------------------------
          ........................................................
          Max(Bonds)      0.0457      Max(Angles)    7.02
          Max(Dihed)        6.55      Max(Improp)    0.00
          ---------------------------------------------------------------------

The optimization has not yet converged - more geometry cycles are needed


    ---------------------------------------------------------------------------
                         Redundant Internal Coordinates
                            (Angstroem and degrees)

        Definition                    Value    dE/dq     Step     New-Value
    ----------------------------------------------------------------------------
     1. B(B   4,B   2)                2.8329  0.019679 -0.0092    2.8238   
     2. B(B   5,B   1)                2.8546  0.018522 -0.0089    2.8457   
     3. B(B   6,B   2)                3.2040  0.005783 -0.0030    3.2009   
     4. B(B   6,B   5)                2.4647  0.034406 -0.0163    2.4485   
     5. B(B   6,B   4)                1.4919  0.023206 -0.0077    1.4841   
     6. B(B   7,B   2)                2.7942  0.033373 -0.0163    2.7779   
     7. B(B   7,B   1)                2.6988  0.028332 -0.0138    2.6851   
     8. B(B   7,B   6)                2.4695  0.013263 -0.0067    2.4628   
     9. B(B   7,B   5)                1.5527  0.038183 -0.0147    1.5379   
    10. B(B   8,B   4)                1.9882  0.090579 -0.0419    1.9463   
    11. B(B   9,B   3)                1.4850 -0.031118  0.0097    1.4947   
    12. B(B   9,B   0)                1.7591  0.059181 -0.0250    1.7341   
    13. B(B  10,B   3)                1.8542  0.086761 -0.0385    1.8157   
    14. B(B  11,B   8)                1.7295  0.108576 -0.0457    1.6838   
    15. B(B  11,B   9)                1.5479  0.005554 -0.0019    1.5460   
    16. A(B   5,B   1,B   7)           32.32  0.005210   -0.19     32.13   
    17. A(B   4,B   2,B   6)           27.75  0.003836   -0.13     27.62   
    18. A(B   6,B   2,B   7)           48.03  0.000262   -0.01     48.01   
    19. A(B   4,B   2,B   7)           72.20  0.004030   -0.15     72.05   
    20. A(B   9,B   3,B  10)          164.81  0.005770   -0.23    164.58   
    21. A(B   6,B   4,B   8)           99.66  0.037110   -1.78     97.88   
    22. A(B   2,B   4,B   8)          112.75  0.029623   -1.50    111.24   
    23. A(B   2,B   4,B   6)           90.10 -0.009015    0.37     90.47   
    24. A(B   1,B   5,B   7)           68.31  0.001955   -0.13     68.18   
    25. A(B   6,B   5,B   7)           71.82 -0.009506    0.41     72.24   
    26. A(B   1,B   5,B   6)          116.94 -0.002319    0.05    116.99   
    27. A(B   2,B   6,B   5)           85.43  0.010007   -0.44     84.98   
    28. A(B   2,B   6,B   4)           62.15  0.005179   -0.25     61.91   
    29. A(B   5,B   6,B   7)           36.68  0.005252   -0.18     36.50   
    30. A(B   4,B   6,B   5)          146.42  0.015609   -0.71    145.72   
    31. A(B   2,B   6,B   7)           57.27  0.005778   -0.30     56.97   
    32. A(B   4,B   6,B   7)          111.25  0.010077   -0.51    110.74   
    33. A(B   1,B   7,B   6)          122.79  0.000839   -0.09    122.70   
    34. A(B   1,B   7,B   5)           79.37 -0.007165    0.31     79.69   
    35. A(B   1,B   7,B   2)          155.94  0.007211   -0.30    155.64   
    36. A(B   2,B   7,B   6)           74.70 -0.006039    0.31     75.02   
    37. A(B   2,B   7,B   5)          124.08  0.000133   -0.02    124.06   
    38. A(B   5,B   7,B   6)           71.49  0.004254   -0.24     71.26   
    39. A(B   4,B   8,B  11)          119.50  0.162806   -7.02    112.48   
    40. A(B   3,B   9,B  11)          109.62 -0.003861    0.12    109.74   
    41. A(B   0,B   9,B  11)          113.94  0.018022   -0.76    113.19   
    42. A(B   0,B   9,B   3)          133.59  0.010990   -0.46    133.13   
    43. A(B   8,B  11,B   9)           86.92  0.153332   -6.21     80.71   
    44. D(B   8,B   4,B   2,B   6)    100.52  0.038860   -1.92     98.61   
    45. D(B   6,B   4,B   2,B   7)    -26.05  0.001685   -0.10    -26.15   
    46. D(B   8,B   4,B   2,B   7)     74.47  0.040545   -2.01     72.46   
    47. D(B   6,B   5,B   1,B   7)    -54.64  0.009631   -0.43    -55.06   
    48. D(B   7,B   6,B   2,B   4)   -145.77 -0.001625    0.11   -145.66   
    49. D(B   4,B   6,B   5,B   1)     75.15 -0.003488    0.14     75.28   
    50. D(B   5,B   6,B   4,B   2)     16.47  0.000105   -0.01     16.45   
    51. D(B   4,B   6,B   2,B   7)    145.77  0.001625   -0.11    145.66   
    52. D(B   4,B   6,B   5,B   7)     22.25  0.000394   -0.02     22.23   
    53. D(B   5,B   6,B   2,B   7)    -25.18 -0.002190    0.06    -25.12   
    54. D(B   2,B   6,B   5,B   1)     89.71 -0.002893    0.10     89.81   
    55. D(B   7,B   6,B   5,B   1)     52.90 -0.003882    0.15     53.05   
    56. D(B   7,B   6,B   4,B   2)     30.51  0.003090   -0.14     30.38   
    57. D(B   5,B   6,B   4,B   8)    -96.64 -0.031114    1.59    -95.06   
    58. D(B   5,B   6,B   2,B   4)   -170.95 -0.003816    0.17   -170.78   
    59. D(B   2,B   6,B   5,B   7)     36.81  0.000989   -0.05     36.76   
    60. D(B   2,B   6,B   4,B   8)   -113.11 -0.031220    1.60   -111.51   
    61. D(B   7,B   6,B   4,B   8)    -82.60 -0.028130    1.47    -81.13   
    62. D(B   5,B   7,B   6,B   4)   -167.02 -0.004296    0.19   -166.82   
    63. D(B   2,B   7,B   5,B   1)    174.14  0.001623   -0.06    174.08   
    64. D(B   2,B   7,B   5,B   6)    -55.78  0.004636   -0.23    -56.01   
    65. D(B   6,B   7,B   5,B   1)   -130.08 -0.003013    0.17   -129.91   
    66. D(B   1,B   7,B   2,B   6)   -139.86  0.000149   -0.01   -139.87   
    67. D(B   1,B   7,B   2,B   4)   -123.89  0.001181   -0.02   -123.91   
    68. D(B   6,B   7,B   2,B   4)     15.97  0.001033   -0.01     15.96   
    69. D(B   1,B   7,B   5,B   6)    130.08  0.003013   -0.17    129.91   
    70. D(B   5,B   7,B   2,B   6)     54.38 -0.000108   -0.01     54.38   
    71. D(B   5,B   7,B   2,B   4)     70.35  0.000925   -0.02     70.33   
    72. D(B   2,B   7,B   1,B   5)   -168.03  0.000052   -0.01   -168.04   
    73. D(B   5,B   7,B   6,B   2)   -134.76 -0.001604    0.09   -134.68   
    74. D(B   6,B   7,B   1,B   5)     59.67 -0.000976    0.01     59.68   
    75. D(B   2,B   7,B   6,B   4)    -32.25 -0.002692    0.11    -32.15   
    76. D(B   1,B   7,B   6,B   2)    161.78  0.005079   -0.20    161.58   
    77. D(B   1,B   7,B   6,B   5)    -63.45  0.006683   -0.29    -63.74   
    78. D(B   1,B   7,B   6,B   4)    129.53  0.002388   -0.09    129.43   
    79. D(B  11,B   8,B   4,B   2)     16.99  0.063370   -3.31     13.67   
    80. D(B  11,B   8,B   4,B   6)    111.19  0.075461   -4.05    107.14   
    81. D(B  11,B   9,B   3,B  10)      1.43 -0.033774    1.77      3.20   
[...]
 classical contributions        ...        0 min,  0.000 sec (  0.103%)
 integral evaluation            ...        0 min,  0.002 sec (  8.803%)
 iterations                     ...        0 min,  0.015 sec ( 52.781%)
 molecular gradient             ...        0 min,  0.006 sec ( 20.867%)
 printout                       ...        0 min,  0.005 sec ( 16.493%)

         :::::::::::::::::::::::::::::::::::::::::::::::::::::
         ::                     SUMMARY                     ::
         :::::::::::::::::::::::::::::::::::::::::::::::::::::
         :: total energy             -13.865633345873 Eh    ::
         :: gradient norm              1.164141473660 Eh/a0 ::
         :: HOMO-LUMO gap              0.786899088103 eV    ::
         ::.................................................::
         :: SCC energy               -14.631595462771 Eh    ::
         :: -> isotropic ES            0.084924112645 Eh    ::
         :: -> anisotropic ES          0.001124319614 Eh    ::
         :: -> anisotropic XC         -0.026986084090 Eh    ::
         :: -> dispersion             -0.011773028129 Eh    ::
         :: repulsion energy           0.765948981344 Eh    ::
         :: add. restraining           0.000000000000 Eh    ::
         :: total charge               0.000000000001 e     ::
         :::::::::::::::::::::::::::::::::::::::::::::::::::::


Property printout bound to 'properties.out'

           -------------------------------------------------
          | TOTAL ENERGY              -13.865633345873 Eh   |
          | GRADIENT NORM               1.164141473660 Eh/α |
          | HOMO-LUMO GAP               0.786899088103 eV   |
           -------------------------------------------------

------------------------------------------------------------------------
 * finished run on 2026/04/17 at 12:14:43.519     
------------------------------------------------------------------------
 total:
 * wall-time:     0 d,  0 h,  0 min,  0.042 sec
 *  cpu-time:     0 d,  0 h,  0 min,  0.041 sec
 * ratio c/w:     0.997 speedup
 SCF:
 * wall-time:     0 d,  0 h,  0 min,  0.028 sec
 *  cpu-time:     0 d,  0 h,  0 min,  0.028 sec
 * ratio c/w:     0.995 speedup


-------------------------   --------------------
FINAL SINGLE POINT ENERGY       -13.865633345870
-------------------------   --------------------


-------------
DIPOLE MOMENT
-------------
                                X             Y             Z
Total Dipole Moment    :      0.00100      -0.17500      -0.41400
                        -----------------------------------------
Magnitude (a.u.)       :      0.44947
Magnitude (Debye)      :      1.14246


------------------
CARTESIAN GRADIENT
------------------

   1   B   :    0.047520322   -0.334302619   -0.535074026
   2   B   :   -0.158828020    0.267728862   -0.250444277
   3   B   :    0.034623650    0.060478400    0.135193338
   4   B   :   -0.015537726   -0.054314006   -0.127973312
   5   B   :    0.177546366   -0.043866314   -0.124273378
   6   B   :    0.023810344    0.030861895    0.018832985
   7   B   :   -0.037130277    0.040599827   -0.028804620
   8   B   :    0.119821946   -0.295098586    0.211665505
   9   B   :   -0.040502553    0.116064686    0.058798185
  10   B   :   -0.430593757    0.191369829    0.282337247
  11   B   :   -0.104528506   -0.045087310    0.147252012
  12   B   :    0.383798209    0.065565336    0.212490342

Difference to translation invariance:
           :   -0.0000000000   -0.0000000000   -0.0000000000

Difference to rotation invariance:
           :    0.0000000065    0.0000000230   -0.0000000109

Norm of the Cartesian gradient     ...    1.1641414737
RMS gradient                       ...    0.1940235789
MAX gradient                       ...    0.5350740264
------------------------------------------------------------------------------
                         ORCA GEOMETRY RELAXATION STEP
------------------------------------------------------------------------------

Reading the OPT-File                    .... done
Getting information on internals        .... done
Copying old internal coords+grads       .... done
Making the new internal coordinates     .... (2022 redundants) done
Validating the new internal coordinates .... (2022 redundants) done
Calculating the B-matrix                .... done
Calculating the G,G- and P matrices     .... done
Transforming gradient to internals      .... done
Projecting the internal gradient        .... done
Number of atoms                         ....  12
Number of internal coordinates          ....  85
Current Energy                          ....   -13.865633346 Eh
Current gradient norm                   ....     1.164141474 Eh/bohr
Maximum allowed component of the step   ....  0.300
Current trust radius                    ....  0.207
Updating the Hessian (BFGS)             .... done
Forming the augmented Hessian           .... done
Diagonalizing the augmented Hessian     .... done
Last element of RFO vector              ....  0.825020584
Lowest eigenvalues of augmented Hessian:
 -0.356772697  0.000382906  0.000528988  0.001035455  0.004324695
Length of the computed step             ....  0.684955853
Warning: the length of the step is outside the trust region - taking restricted step instead
The input lambda is                     ....    -0.000627
   iter:   5  x=   -0.026238  g= 1312.135474 f(x)=    17.009979
   iter:  10  x=   -0.596343  g=    1.777363 f(x)=     0.439898
   iter:  15  x=   -2.084993  g=    0.030789 f(x)=     0.000849
The output lambda is                    ....    -2.085428 (18 iterations)
The final length of the internal step   ....  0.207407407
Converting the step to Cartesian space:
 Initial RMS(Int)=    0.0224964919
Transforming coordinates:
 Iter   0:  RMS(Cart)=    0.0261400783 RMS(Int)=    0.0224489707
 Iter   5:  RMS(Cart)=    0.0000080832 RMS(Int)=    0.0000033188
 Iter  10:  RMS(Cart)=    0.0000000972 RMS(Int)=    0.0000000399
done
Storing new coordinates                 .... done
The predicted energy change is          ....    -0.111115609
Previously predicted energy change      ....    -0.299437172
Actually observed energy change         ....    -0.263716281
Ratio of predicted to observed change   ....     0.880706557
New trust radius                        ....     0.311111111

                                .--------------------.
          ----------------------|Geometry convergence|-------------------------
          Item                value                   Tolerance       Converged
          ---------------------------------------------------------------------
          Energy change      -0.2637162805            0.0000010000      NO
          RMS gradient        0.0714001442            0.0000300000      NO
          MAX gradient        0.3129225935            0.0001000000      NO
          RMS step            0.0224964919            0.0006000000      NO
          MAX step            0.0805063391            0.0010000000      NO
          -------------------------------------------------------------------------
          ........................................................
          Max(Bonds)      0.0426      Max(Angles)    1.39
          Max(Dihed)        1.13      Max(Improp)    0.00
          ---------------------------------------------------------------------

The optimization has not yet converged - more geometry cycles are needed


    ---------------------------------------------------------------------------
                         Redundant Internal Coordinates
                            (Angstroem and degrees)

        Definition                    Value    dE/dq     Step     New-Value
    ----------------------------------------------------------------------------
     1. B(B   3,B   2)                1.3919 -0.131080  0.0289    1.4208   
     2. B(B   5,B   1)                1.4555 -0.043150  0.0086    1.4641   
     3. B(B   6,B   4)                1.5620 -0.070897  0.0124    1.5745   
     4. B(B   6,B   5)                1.5324 -0.017422  0.0022    1.5346   
     5. B(B   7,B   3)                1.5977 -0.009860  0.0020    1.5998   
     6. B(B   7,B   5)                1.7850 -0.072876  0.0123    1.7973   
     7. B(B   7,B   1)                1.2647 -0.302644  0.0423    1.3071   
     8. B(B   8,B   4)                1.7729  0.030387 -0.0094    1.7635   
     9. B(B   8,B   0)                2.2143 -0.151003  0.0314    2.2457   
    10. B(B   9,B   3)                1.6828  0.020367 -0.0034    1.6794   
    11. B(B   9,B   0)                1.2263 -0.312923  0.0396    1.2658   
    12. B(B  10,B   4)                1.3858 -0.169532  0.0335    1.4193   
    13. B(B  10,B   2)                1.5526  0.039344 -0.0072    1.5455   
    14. B(B  11,B   8)                1.4165  0.009794  0.0012    1.4177   
    15. B(B  11,B   0)                1.2428 -0.180921  0.0419    1.2846   
    16. B(B  11,B   9)                1.9229 -0.257293  0.0426    1.9655   
    17. A(B   8,B   0,B  11)           36.20  0.032032   -0.69     35.52   
    18. A(B   9,B   0,B  11)          102.30  0.086695   -1.36    100.94   
    19. A(B   8,B   0,B   9)           73.83  0.055658   -0.85     72.98   
    20. A(B   5,B   1,B   7)           81.70  0.070880   -1.10     80.60   
    21. A(B   3,B   2,B  10)          119.97  0.015496   -0.22    119.74   
    22. A(B   2,B   3,B   9)          109.49 -0.018621    0.59    110.08   
    23. A(B   2,B   3,B   7)          113.34 -0.006677    0.08    113.42   
    24. A(B   7,B   3,B   9)          112.48  0.028781   -0.53    111.96   
    25. A(B   8,B   4,B  10)          130.62 -0.006932    0.19    130.81   
    26. A(B   6,B   4,B  10)           62.70 -0.022819    0.44     63.14   
    27. A(B   6,B   4,B   8)          139.31  0.009701   -0.19    139.13   
    28. A(B   1,B   5,B   6)          136.91 -0.061122    0.99    137.90   
    29. A(B   1,B   5,B   7)           44.52 -0.093092    1.39     45.91   
    30. A(B   6,B   5,B   7)           93.05  0.031359   -0.50     92.55   
    31. L(B   4,B   6,B   5,B   7, 2) 147.37 -0.012028    0.29    147.66   
    32. L(B   4,B   6,B   5,B   7, 1) 153.79 -0.022831    0.38    154.17   
    33. A(B   1,B   7,B   3)          171.68 -0.008165    0.13    171.81   
    34. A(B   3,B   7,B   5)          125.03 -0.021818    0.28    125.31   
    35. A(B   1,B   7,B   5)           53.79  0.022212   -0.29     53.49   
    36. A(B   4,B   8,B  11)          151.93 -0.054035    1.03    152.96   
    37. A(B   0,B   8,B   4)          125.21 -0.036610    0.49    125.71   
    38. A(B   0,B   8,B  11)           31.21 -0.022379    0.65     31.86   
    39. A(B   3,B   9,B  11)          142.88  0.012468   -0.65    142.23   
    40. A(B   0,B   9,B  11)           39.16 -0.020469    0.80     39.95   
    41. A(B   0,B   9,B   3)          177.15  0.011535   -0.51    176.64   
    42. A(B   2,B  10,B   4)          108.04  0.007175   -0.19    107.85   
    43. A(B   8,B  11,B   9)           81.46  0.045231   -0.69     80.77   
    44. A(B   0,B  11,B   9)           38.54 -0.066226    0.56     39.11   
    45. A(B   0,B  11,B   8)          112.59 -0.009653    0.04    112.62   
    46. D(B   9,B   3,B   2,B  10)    -79.87 -0.006019    0.12    -79.74   
    47. D(B   7,B   3,B   2,B  10)     46.62  0.012255   -0.22     46.39   
    48. D(B   7,B   5,B   4,B   8)    -53.69  0.032635   -0.58    -54.27   
    49. D(B   7,B   5,B   4,B  10)     74.83  0.013764   -0.19     74.64   
    50. D(B   6,B   5,B   1,B   7)    -12.56  0.002787    0.00    -12.56   
    51. D(B   1,B   5,B   4,B   8)    -33.30 -0.010869    0.20    -33.10   
    52. D(B   1,B   5,B   4,B  10)     95.22 -0.029740    0.59     95.81   
    53. D(B   1,B   7,B   5,B   6)    171.44 -0.008203    0.29    171.73   
    54. D(B   3,B   7,B   5,B   1)   -169.86  0.007432   -0.14   -170.00   
    55. D(B   5,B   7,B   3,B   9)     88.30  0.009364    0.06     88.35   
    56. D(B   5,B   7,B   3,B   2)    -36.59  0.016520   -0.39    -36.97   
    57. D(B   1,B   7,B   3,B   9)      9.39 -0.000850    0.12      9.51   
    58. D(B   1,B   7,B   3,B   2)   -115.49  0.006306   -0.13   -115.62   
    59. D(B   3,B   7,B   5,B   6)      1.58 -0.000771    0.15      1.72   
    60. D(B   3,B   7,B   1,B   5)     84.82  0.011399   -0.08     84.73   
    61. D(B  11,B   8,B   4,B  10)    -33.15  0.005359    0.01    -33.14   
    62. D(B  11,B   8,B   4,B   6)     60.92 -0.035086    0.74     61.65   
    63. D(B   0,B   8,B   4,B  10)    -58.82  0.056929   -1.13    -59.95   
    64. D(B   0,B   8,B   4,B   6)     35.24  0.016484   -0.40     34.84   
    65. D(B  11,B   8,B   0,B   9)   -140.50 -0.027939    0.54   -139.96   
    66. D(B   4,B   8,B   0,B  11)    156.84 -0.013265    0.55    157.38   
    67. D(B   4,B   8,B   0,B   9)     16.34 -0.041204    1.09     17.42   
    68. D(B  11,B   9,B   3,B   7)   -109.09 -0.009529    0.02   -109.07   
    69. D(B  11,B   9,B   3,B   2)     17.88 -0.011229    0.12     18.00   
    70. D(B   0,B   9,B   3,B   7)     25.18  0.001899   -0.09     25.09   
    71. D(B   0,B   9,B   3,B   2)    152.15  0.000199    0.01    152.16   
    72. D(B  11,B   9,B   0,B   8)     22.61  0.011986   -0.32     22.29   
    73. D(B   3,B   9,B   0,B  11)   -136.81 -0.002324   -0.09   -136.90   
    74. D(B   3,B   9,B   0,B   8)   -114.19  0.009661   -0.29   -114.49   
    75. D(B   2,B  10,B   4,B   6)   -102.22 -0.003949    0.14   -102.09   
    76. D(B   4,B  10,B   2,B   3)     46.13  0.010817   -0.21     45.91   
    77. D(B   2,B  10,B   4,B   8)     30.74 -0.007563    0.22     30.96   
    78. D(B   8,B  11,B   9,B   3)     32.48  0.011122   -0.34     32.14   
    79. D(B   0,B  11,B   9,B   3)    176.77  0.012295   -0.38    176.39   
    80. D(B   9,B  11,B   8,B   4)    -19.88  0.003568   -0.59    -20.48   
    81. D(B   9,B  11,B   8,B   0)     23.20 -0.038056    0.20     23.40   
    82. D(B   0,B  11,B   8,B   4)    -43.09  0.041624   -0.80    -43.88   
    83. D(B   8,B  11,B   9,B   0)   -144.28 -0.001174    0.04   -144.25   
    84. D(B   9,B  11,B   0,B   8)    -38.70 -0.000920   -0.02    -38.73   
    85. D(B   8,B  11,B   0,B   9)     38.70  0.000920    0.02     38.73   
    ----------------------------------------------------------------------------

Geometry step timings:
Preparation and reading OPT file:      0.000 s ( 0.914 %)
Internal coordinates            :      0.000 s ( 1.188 %)
B/P matrices and projection     :      0.001 s (19.790 %)
Hessian update/contruction      :      0.001 s (14.397 %)
Making the step                 :      0.002 s (38.208 %)
Converting the step to Cartesian:      0.000 s ( 3.793 %)
Storing new data                :      0.000 s ( 2.171 %)
Checking convergence            :      0.000 s ( 1.371 %)
Final printing                  :      0.001 s (18.144 %)
Total time                      :      0.004 s

Time for energy+gradient        :      0.069 s
Time for complete geometry iter :      0.075 s




    ----------------------------------------------------------------------------
                                  WARNING !!!
       The optimization did not converge but reached the maximum number of
       optimization cycles.
       Please check your results very carefully.
    ----------------------------------------------------------------------------



--------------------------------
SUGGESTED CITATIONS FOR THIS RUN
--------------------------------

Below you find a list of papers that are relevant to this ORCA run
We neither can nor want to force you to cite these papers, but we appreciate if you do
You receive ORCA, which is the product of decades of hard work by many enthusiastic individuals, for free
The only thing we kindly ask in return is that you cite our papers,
We deeply appreciate it, if you show your appreciation for ORCA by not just citing the generic ORCA reference.

Please note that relegating all ORCA citations to the supporting information does *not* help us.
SI sections are not indexed - citations you put there will not count into any citation statistics
But we need these citations in order to attract the funding resources that allow us to do what we are doing

Therefore, if you are a happy ORCA user, please consider citing a few of the papers listed below in the main body of your paper

In addition to the list printed below, the program has created the file random_d1.70_006_m3.bibtex that contains the list in bibtex format
You can import this file easily into all common literature databanks and citation aid programs

It goes without saying that in many instances, there are alternative algorithms to achieve similar
results as the ones you have gotten from ORCA. It is, of course, also the case that in some instances
ORCA just re-implements algorithms worked out by others. We are fully aware of that and we are also
fully appreciative of our colleagues work. Hence this citation list should not be read as indicating
that the listed papers, which are focused on our own work, are the only ones worth citing. It simply
meant to make it easier for users to cite ORCA specific papers. It is not a substitute for doing your
own literature research and citing the relevant literature in a scientifically appropriate manner.

List of essential papers. We consider these as the minimum necessary citations

  1. Bannwarth, C.; Ehlert, S.; Grimme, S.
     GFN2-xTB—An Accurate and Broadly Parametrized Self-Consistent Tight-Binding Quantum Chemical Method with Multipole Electrostatics and Density-Dependent Dispersion Contributions
     J. Chem. Theory Comput. 2019 15(3), 1652-1671
     doi.org/10.1021/acs.jctc.8b01176
  2. Neese, F.
     Software update: the ORCA program system, version 6.0
     WIRES Comput. Molec. Sci. 2025 15(1), e70019
     doi.org/10.1002/wcms.70019

List of papers to cite with high priority. The work reported in these papers was absolutely
necessary for this run to complete.
Our perspective: the developers of density functionals and basis sets usually get cited in chemistry papers
Good! But without the algorithms to do something with them, the functionals or basis sets would not do anything.
Hence, in our opinion, the algorithm design and method developments papers are equally worthy of getting cited

  1. Bannwarth, C.; Caldeweyher, E.; Ehlert, S.; Hansen, A.; Pracht, P.; Seibert, J.; Spicher, S.; Grimme, S.
     Extended tight-binding quantum chemistry methods
     WIRES Comput. Molec. Sci. 2020 11(2), e1493
     doi.org/10.1002/wcms.1493

List of suggested additional citations. These are papers that are important in the 'surrounding' of 
of this run, or papers that preceded the highly important papers. If you like your results we are grateful for a citation.

  1. Neese, F.
     The ORCA program system
     WIRES Comput. Molec. Sci. 2012 2(1), 73-78
     doi.org/10.1002/wcms.81
  2. Neese, F.
     Software update: the ORCA program system, version 4.0
     WIRES Comput. Molec. Sci. 2018 8(1), 1-6
     doi.org/10.1002/wcms.1327
  3. Neese, F.; Wennmohs, F.; Becker, U.; Riplinger, C.
     The ORCA quantum chemistry program package
     J. Chem. Phys. 2020 152(22), 224108
     doi.org/10.1063/5.0004608
  4. Neese, F.
     Software update: The ORCA program system—Version 5.0
     WIRES Comput. Molec. Sci. 2022 12(1), e1606
     doi.org/10.1002/wcms.1606

List of optional additional citations

  1. Neese, F.
     Approximate second-order SCF convergence for spin unrestricted wavefunctions
     Chem. Phys. Lett. 2000 325(1-3), 93-98
     doi.org/10.1016/s0009-2614(00)00662-x

Timings for individual modules:

Sum of individual times          ...        3.614 sec (=   0.060 min)
Geometry relaxation              ...        0.263 sec (=   0.004 min)   7.3 %
XTB module                       ...        3.351 sec (=   0.056 min)  92.7 %
                             ****ORCA TERMINATED NORMALLY****
TOTAL RUN TIME: 0 days 0 hours 0 minutes 4 seconds 169 msec
