
                                 *****************
                                 * O   R   C   A *
                                 *****************

                                            #,                                       
                                            ###                                      
                                            ####                                     
                                            #####                                    
                                            ######                                   
                                           ########,                                 
                                     ,,################,,,,,                         
                               ,,#################################,,                 
                          ,,##########################################,,             
                       ,#########################################, ''#####,          
                    ,#############################################,,   '####,        
                  ,##################################################,,,,####,       
                ,###########''''           ''''###############################       
              ,#####''   ,,,,##########,,,,          '''####'''          '####       
            ,##' ,,,,###########################,,,                        '##       
           ' ,,###''''                  '''############,,,                           
         ,,##''                                '''############,,,,        ,,,,,,###''
      ,#''                                            '''#######################'''  
     '                                                          ''''####''''         
             ,#######,   #######,   ,#######,      ##                                
            ,#'     '#,  ##    ##  ,#'     '#,    #''#        ,####,    ,#,          
            ##       ##  ##   ,#'  ##            #'  '#       #'       ,# #          
            ##       ##  #######   ##           ,######,      #####,      #          
            '#,     ,#'  ##    ##  '#,     ,#' ,#      #,     #,   #      #          
             '#######'   ##     ##  '#######'  #'      '#     '####' #    #          



                #########################################################
                #                        -***-                          #
                #          Department of theory and spectroscopy        #
                #                                                       #
                #                      Frank Neese                      #
                #                                                       #
                #     Directorship, Architecture, Infrastructure        #
                #                    SHARK, DRIVERS                     #
                #        Core code/Algorithms in most modules           #
                #                                                       #
                #        Max Planck Institute fuer Kohlenforschung      #
                #                Kaiser Wilhelm Platz 1                 #
                #                 D-45470 Muelheim/Ruhr                 #
                #                      Germany                          #
                #                                                       #
                #                  All rights reserved                  #
                #                        -***-                          #
                #########################################################


                         Program Version 6.1.1  -  RELEASE   -
                                (GIT: $487d211c$)
                          ($2025-11-21 10:33:24 +0100$)
                                                                         
                                  - NO-DMRG VERSION -                    
                                                                         


 With contributions from (in alphabetic order):
[Max-Planck-Institut fuer Kohlenforschung]                               
  Daniel Aravena         : Magnetic Suceptibility                        
  Michael Atanasov       : Ab Initio Ligand Field Theory (pilot matlab implementation)
  Alexander A. Auer      : GIAO ZORA, VPT2 properties, NMR spectrum      
  Ute Becker             : All parallelization in ORCA, NUMFREQ, NUMCALC 
  Giovanni Bistoni       : ED, misc. LED, open-shell LED, HFLD           
  Dmytro Bykov           : pre 5.0 version of the SCF Hessian            
  Marcos Casanova-Páez   : Triplet and SCS-CIS(D). UHF-(DLPNO)-IP/EA/STEOM-CCSD. UHF-CVS-IP/STEOM-CCSD   
  Vijay G. Chilkuri      : MRCI spin determinant printing, contributions to CSF-ICE 
  Pauline Colinet        : FMM embedding                                 
  Dipayan Datta          : RHF DLPNO-CCSD density                        
  Achintya Kumar Dutta   : EOM-CC, STEOM-CC                              
  Nicolas Foglia         : Exact transition moments, OPA infrastructure, MCD improvements    
  Dmitry Ganyushin       : Spin-Orbit,Spin-Spin,Magnetic field MRCI      
  Miquel Garcia-Rates    : C-PCM and meta-GGA Hessian, CCSD/C-PCM, Gaussian charge scheme 
  Tiago L. C. Gouveia    : GS-ROHF, GS-ROCIS                             
  Yang Guo               : DLPNO-NEVPT2, F12-NEVPT2, CIM, IAO-localization        
  Andreas Hansen         : Spin unrestricted coupled pair/coupled cluster methods 
  Ingolf Harden          : AUTO-CI MPn and infrastructure                
  Benjamin Helmich-Paris : MC-RPA, TRAH-(SCF,CASSCF), AVAS, COSX integrals, SCF dyn. polar., MC-PDFT, srDFT 
  Lee Huntington         : MR-EOM, pCC                                   
  Robert Izsak           : Overlap fitted RIJCOSX, COSX-SCS-MP3, EOM     
  Riya Kayal             : Wick's Theorem for AUTO-CI, AUTO-CI UHF-CCSDT 
  Emily Kempfer          : AUTO-CI RHF CISDT and CCSDT, approximate NEVPT4
  Christian Kollmar      : KDIIS, OOCD, Brueckner-CCSD(T), CCSD density, CASPT2, CASPT2-K, improved NEVPT2 
  Axel Koslowski         : Symmetry handling                             
  Simone Kossmann        : meta-GGA functionals, TD-DFT gradient, OOMP2, (MP2 Hessian; deprecated post 5.0) 
  Lucas Lang             : DCDCAS, Hyperfine gauge corrections, ICE-SOC+SSC
  Marvin Lechner         : AUTO-CI (C++ implementation), FIC-MRCC        
  Spencer Leger          : CASSCF response                               
  Dagmar Lenk            : GEPOL surface, SMD, ORCA-2-JSON               
  Dimitrios Liakos       : Extrapolation schemes; Compound Job, Property file
  Dimitrios Manganas     : Further ROCIS development; embedding schemes. LFT, Crystal Embedding 
  Dimitrios Pantazis     : SARC Basis sets                               
  Anastasios Papadopoulos: AUTO-CI, single reference methods and gradients 
  Taras Petrenko         : pre 6.0 DFT Hessian and TD-DFT gradient,  ECA, NRVS 
  Petra Pikulova         : Analytic Raman intensities                    
  Peter Pinski           : DLPNO-MP2, DLPNO-MP2 Gradient                 
  Shashank Vittal Rao    : ES-AILFT, MagRelax                            
  Christoph Reimann      : Effective Core Potentials                     
  Marius Retegan         : Local ZFS, SOC                                
  Christoph Riplinger    : Optimizer, TS searches, QM/MM, DLPNO-CCSD(T), (RO)-DLPNO pert. Triples 
  Michael Roemelt        : Original ROCIS implementation, recursive CI coupling coefficients
  Masaaki Saitow         : Open-shell DLPNO-CCSD energy and density      
  Barbara Sandhoefer     : DKH picture change effects                    
  Yorick L. A. Schmerwitz: GMF and freeze-and-release deltaSCF, NEB S-IDPP initial path                    
  Kantharuban Sivalingam : CASSCF convergence/infrastructure, NEVPT2, NEVPT3, NEVPT4(SD), FIC-MRCI and CEPA variants
  Bernardo de Souza      : ESD, SOC TD-DFT                               
  Georgi L. Stoychev     : AutoAux, RI-MP2 NMR, DLPNO-MP2 response, X2C  
  Van Anh Tran           : RI-MP2 g-tensors                              
  Willem Van den Heuvel  : Paramagnetic NMR                              
  Zikuan Wang            : NOTCH, Electric field optimization            
  Frank Wennmohs         : Technical directorship and infrastructure     
  Hang Xu                : AUTO-CI-Response properties                   
                                                                         
[FACCTs GmbH]                                                            
  Markus Bursch, Nicolas Foglia, Miquel Garcia-Rates, Ingolf Harden, Hagen Neugebauer, Anastasios Papadopoulos, 
  Christoph Riplinger, Bernardo de Souza, Georgi L. Stoychev                                                    
                                                                 
  APM, various basis sets, CI-OPT, improved COSX, DLPNO-Multilevel,           
  DOCKER, DRACO, updates on ESD, Fragmentator, GOAT, IRC, LR-CPCM, L-BFGS, MBIS, meta-GGA TD-DFT gradient, ML-optimized integration grids, 
  MM, NACMEs, nearIR, NEB, NEB-TS, NL-DFT gradient (VV10), 2- and 3-layer-ONIOM, interface openCOSMO-RS, QMMM,   
  Crystal-QMMM, RESP, rigid body optimization, SF, symmetry and pop. for TD-DFT, various functionals, SOLVATOR                                   
                                                                         
[Other institutions]                                                     
  V. Asgeirsson          : NEB                                           
  Christoph Bannwarth    : sTDA-DFT, sTD-DFT, PBEh-3c, B97-3c, D3        
  Giovanni Bistoni       : ETS/NOCV, ADLD/ADEX, COVALED                  
  Martin Brehm           : Molecular dynamics                            
  Ronald Cardenas        : ETS/NOCV                                      
  Martina Colucci        : COVALED                                       
  Sebastian Ehlert       : rSCAN, r2SCAN, r2SCAN-3c, D4, dhf basis sets  
  Marvin Friede          : D4 for Fr, Ra, Ac-Lr                          
  Lars Goerigk           : TD-DFT with DH, B97 family of functionals     
  Stefan Grimme          : VdW corrections, initial TS optimization, DFT functionals, gCP, sTDA/sTD-DF 
  Waldemar Hujo          : DFT-NL                                        
  H. Jonsson             : NEB                                           
  Holger Kruse           : gCP                                           
  Marcel Mueller         : wB97X-3c, vDZP basis set                      
  Hagen Neugebauer       : wr2SCAN, Native XTB                           
  Gianluca Regni         : ADLD/ADEX                                     
  Tobias Risthaus        : pre 6.0 range-separated hybrid DFT and stability analysis
  Lukas Wittmann         : regularized MP2, r2SCAN double-hybrids, wr2SCAN        
                                                                         
We gratefully acknowledge several colleagues who have allowed us to      
interface, adapt or use parts of their codes:                            
  Ed Valeev, F. Pavosevic, A. Kumar             : LibInt (2-el integral package), F12 methods 
  Garnet Chan, S. Sharma, J. Yang, R. Olivares  : DMRG                   
  Ulf Ekstrom                                   : XCFun DFT Library      
  Mihaly Kallay                                 : mrcc  (arbitrary order and MRCC methods)
  Frank Weinhold                                : gennbo (NPA and NBO analysis)           
  Simon Mueller                                 : openCOSMO-RS                            
  Christopher J. Cramer and Donald G. Truhlar   : smd solvation model                     
  S Lehtola, MJT Oliveira, MAL Marques          : LibXC Library                           
  Liviu Ungur et al                             : ANISO software                          


 Your calculation uses the libint2 library for the computation of 2-el integrals
 For citations please refer to: http://libint.valeyev.net

 Your ORCA version has been built with support for libXC version: 7.0.0
 For citations please refer to: https://libxc.gitlab.io

 This ORCA versions uses:
   CBLAS   interface :  Fast vector & matrix operations
   LAPACKE interface :  Fast linear algebra routines
   SCALAPACK package :  Parallel linear algebra routines
   Shared memory     :  Shared parallel matrices
   BLAS/LAPACK       :  OpenBLAS 0.3.29  USE64BITINT DYNAMIC_ARCH NO_AFFINITY Zen SINGLE_THREADED
        Core in use  :  Zen
   Copyright (c) 2011-2014, The OpenBLAS Project


  ***********************************
  * Starting time: Fri Apr 17 12:14:51 2026
  * Host name:     vmi3233575
  * Process ID:    340068
  * Working dir.:  /root/orca_b12_vps_pack/jobs/01_xtb/mult_3
  ***********************************

NOTE: MaxCore=500 MB was set to SCF,MP2,MDCI,CIPSI,MRCI,RASCI and CIS
      => If you want to overwrite this, your respective input block should be placed after the MaxCore statement


***************************************
The coordinates will be read from file: ../../../starts/random_d2.10_005.xyz
***************************************


Your calculation utilizes the semiempirical GFN2-xTB method
Please cite in your paper:
Bannwarth, C.; Ehlert S.; Grimme, S. J. Chem. Theory Comput. 2019, 15, 1652.
   

================================================================================

================================================================================
                                        WARNINGS
                       Please study these warnings very carefully!
================================================================================


WARNING: Geometry Optimization
  ===> : Switching off AutoStart
         For restart on a previous wavefunction, please use MOREAD

WARNING: Found dipole moment calculation with XTB calculation
  ===> : Switching off dipole moment calculation

Environment variable XTBEXE for xtb has been set!

================================================================================
                                       INPUT FILE
================================================================================
NAME = random_d2.10_005_m3.inp
|  1> ! GFN2-xTB TightSCF TightOpt
|  2> 
|  3> %pal
|  4>   nprocs 1
|  5> end
|  6> 
|  7> %maxcore 500
|  8> 
|  9> * xyzfile 0 3 ../../../starts/random_d2.10_005.xyz
| 10> 
| 11>                          ****END OF INPUT****
================================================================================

                       *****************************
                       * Geometry Optimization Run *
                       *****************************

Geometry optimization settings:
Update method            Update   .... BFGS
Choice of coordinates    CoordSys .... (2022) Redundant Internals
Initial Hessian          InHess   .... Almloef's Model
Max. no of cycles        MaxIter  .... 50

Convergence Tolerances:
Energy Change            TolE     ....  1.0000e-06 Eh
Max. Gradient            TolMAXG  ....  1.0000e-04 Eh/bohr
RMS Gradient             TolRMSG  ....  3.0000e-05 Eh/bohr
Max. Displacement        TolMAXD  ....  1.0000e-03 bohr
RMS Displacement         TolRMSD  ....  6.0000e-04 bohr
Strict Convergence                .... False

------------------------------------------------------------------------------
                        ORCA OPTIMIZATION COORDINATE SETUP
------------------------------------------------------------------------------

The optimization will be done in redundant internal coordinates (2022)
Making redundant internal coordinates   ...  (2022 redundants) done
Evaluating the initial hessian          ...  (Almloef) done
Evaluating the coordinates              ...  done
Calculating the B-matrix                .... done
Calculating the G-matrix                .... done
The number of degrees of freedom        ....  238

    -----------------------------------------------------------------
                    Redundant Internal Coordinates


    -----------------------------------------------------------------
         Definition                    Initial Value    Approx d2E/dq
    -----------------------------------------------------------------
      1. B(B   5,B   1)                  1.1611         1.943538   
      2. B(B   5,B   2)                  3.8546         0.010000   
      3. B(B   6,B   3)                  2.0213         0.082453   
      4. B(B   7,B   0)                  5.5909         0.010000   
      5. B(B   7,B   6)                  5.3309         0.010000   
      6. B(B   7,B   2)                  3.2754         0.010000   
      7. B(B   7,B   1)                  2.8768         0.010000   
      8. B(B   8,B   6)                  5.0998         0.010000   
      9. B(B   8,B   0)                  4.5108         0.010000   
     10. B(B   9,B   0)                  1.6734         0.295992   
     11. B(B   9,B   4)                  3.6487         0.010000   
     12. B(B   9,B   8)                  5.5934         0.010000   
     13. B(B  10,B   6)                  5.4752         0.010000   
     14. B(B  10,B   2)                  4.1002         0.010000   
     15. B(B  10,B   9)                  5.0144         0.010000   
     16. B(B  10,B   8)                  1.9564         0.104632   
     17. B(B  10,B   5)                  2.6558         0.010000   
     18. B(B  10,B   0)                  4.3278         0.010000   
     19. B(B  10,B   1)                  2.2365         0.037394   
     20. B(B  10,B   7)                  1.4870         0.586920   
     21. B(B  11,B   4)                  2.5253         0.012942   
     22. B(B  11,B   3)                  2.3579         0.023938   
     23. A(B   8,B   0,B  10)           25.4682         0.091678   
     24. A(B   7,B   0,B   9)          103.4145         0.098917   
     25. A(B   7,B   0,B   8)           21.3639         0.089937   
     26. A(B   7,B   0,B  10)            9.1505         0.090091   
     27. A(B   9,B   0,B  10)          104.4470         0.117344   
     28. A(B   8,B   0,B   9)          122.6241         0.113344   
     29. A(B   7,B   1,B  10)           30.6816         0.148306   
     30. A(B   5,B   1,B  10)           97.7783         0.335972   
     31. A(B   5,B   1,B   7)           97.0490         0.234026   
     32. A(B   5,B   2,B   7)           53.1530         0.100088   
     33. A(B   7,B   2,B  10)           19.4381         0.098040   
     34. A(B   5,B   2,B  10)           38.8514         0.094585   
     35. A(B   6,B   3,B  11)           97.0333         0.198189   
     36. A(B   9,B   4,B  11)           81.9633         0.113550   
     37. A(B   1,B   5,B  10)           56.5526         0.263284   
     38. A(B   1,B   5,B   2)          111.0215         0.153322   
     39. A(B   2,B   5,B  10)           75.5784         0.107562   
     40. A(B   7,B   6,B  10)           15.7454         0.089522   
     41. A(B   8,B   6,B  10)           20.9356         0.089632   
     42. A(B   3,B   6,B  10)          116.3632         0.097176   
     43. A(B   7,B   6,B   8)           23.6830         0.089713   
     44. A(B   3,B   6,B   7)          116.3428         0.098218   
     45. A(B   3,B   6,B   8)          137.1434         0.100171   
     46. A(B   2,B   7,B   6)           54.2579         0.092249   
     47. A(B   2,B   7,B  10)          113.4214         0.168395   
     48. A(B   1,B   7,B   6)          110.7534         0.093526   
     49. A(B   1,B   7,B  10)           50.1258         0.199598   
     50. A(B   0,B   7,B   1)           71.4316         0.092646   
     51. A(B   1,B   7,B   2)           91.2540         0.114000   
     52. A(B   0,B   7,B  10)           27.5703         0.100578   
     53. A(B   6,B   7,B  10)           87.6438         0.103373   
     54. A(B   0,B   7,B   2)           99.5734         0.091617   
     55. A(B   0,B   7,B   6)           61.1011         0.089474   
     56. A(B   0,B   8,B  10)           72.0321         0.108239   
     57. A(B   6,B   8,B   9)           61.0300         0.089573   
     58. A(B   0,B   8,B   6)           70.3313         0.090410   
     59. A(B   0,B   8,B   9)           14.5939         0.089935   
     60. A(B   6,B   8,B  10)           90.4083         0.100790   
     61. A(B   9,B   8,B  10)           62.9002         0.096821   
     62. A(B   4,B   9,B  10)           84.6126         0.092099   
     63. A(B   0,B   9,B  10)           56.6988         0.105016   
     64. A(B   0,B   9,B   4)          140.1342         0.138855   
     65. A(B   8,B   9,B  10)           20.3241         0.089615   
     66. A(B   4,B   9,B   8)           97.4054         0.090915   
     67. A(B   0,B   9,B   8)           42.7820         0.098896   
     68. A(B   8,B  10,B   9)           96.7757         0.101657   
     69. A(B   0,B  10,B   7)          143.2792         0.122095   
     70. A(B   6,B  10,B   9)           62.3757         0.089679   
     71. A(B   1,B  10,B   5)           25.6691         0.160271   
     72. A(B   5,B  10,B   6)           95.6313         0.093824   
     73. A(B   0,B  10,B   6)           67.8891         0.090201   
     74. A(B   7,B  10,B   9)          137.7817         0.107700   
     75. A(B   5,B  10,B   9)           77.0165         0.096076   
     76. A(B   0,B  10,B   5)           94.0187         0.101523   
     77. A(B   6,B  10,B   8)           68.6561         0.097629   
     78. A(B   5,B  10,B   8)          164.1033         0.178961   
     79. A(B   5,B  10,B   7)           98.5885         0.221911   
     80. A(B   6,B  10,B   7)           76.6108         0.101748   
     81. A(B   1,B  10,B   6)          120.9157         0.095836   
     82. A(B   1,B  10,B   9)           93.7595         0.099028   
     83. A(B   0,B  10,B   1)          106.6870         0.106746   
     84. A(B   1,B  10,B   8)          168.4558         0.216480   
     85. A(B   1,B  10,B   7)           99.1927         0.277343   
     86. A(B   2,B  10,B   5)           65.5702         0.104133   
     87. A(B   2,B  10,B   6)           51.3504         0.090451   
     88. A(B   2,B  10,B   9)           95.8717         0.091129   
     89. A(B   0,B  10,B   2)          110.6849         0.092768   
     90. A(B   2,B  10,B   8)          101.0513         0.116068   
     91. A(B   2,B  10,B   7)           47.1405         0.128990   
     92. A(B   1,B  10,B   2)           82.4902         0.110444   
     93. A(B   0,B  10,B   9)           18.8542         0.090762   
     94. A(B   0,B  10,B   8)           82.4997         0.111400   
     95. A(B   7,B  10,B   8)           76.0134         0.326734   
     96. A(B   3,B  11,B   4)          136.6153         0.160806   
     97. D(B   1,B   5,B   2,B  10)     44.8867         0.010000   
     98. D(B  10,B   5,B   1,B   7)     30.9381         0.227633   
     99. D(B   2,B   5,B   1,B   7)    -24.0589         0.227633   
    100. D(B   1,B   5,B   2,B   7)     26.3630         0.010000   
    101. D(B  10,B   5,B   2,B   7)    -18.5237         0.010000   
    102. D(B   2,B   5,B   1,B  10)    -54.9970         0.227633   
    103. D(B   8,B   6,B   3,B  11)    -60.7066         0.010000   
    104. D(B  10,B   6,B   3,B  11)    -57.4800         0.010000   
    105. D(B   7,B   6,B   3,B  11)    -75.0652         0.010000   
    106. D(B  10,B   7,B   0,B   8)   -106.6612         0.010000   
    107. D(B   0,B   7,B   2,B   5)     61.7453         0.010000   
    108. D(B   0,B   7,B   1,B  10)     20.3057         0.010000   
    109. D(B   6,B   7,B   1,B  10)     68.0477         0.010000   
    110. D(B   6,B   7,B   0,B  10)   -162.8931         0.010000   
    111. D(B   2,B   7,B   1,B   5)     26.6113         0.010000   
    112. D(B   6,B   7,B   0,B   8)     90.4457         0.010000   
    113. D(B  10,B   7,B   6,B   3)     94.0015         0.010000   
    114. D(B   6,B   7,B   2,B   5)    105.2600         0.010000   
    115. D(B   0,B   7,B   1,B   5)    -73.0679         0.010000   
    116. D(B   6,B   7,B   0,B   9)    -65.2995         0.010000   
    117. D(B   6,B   7,B   1,B   5)    -25.3259         0.010000   
    118. D(B  10,B   7,B   6,B   8)    -61.1685         0.010000   
    119. D(B   0,B   7,B   6,B   3)    101.8331         0.010000   
    120. D(B   6,B   7,B   2,B  10)     68.4720         0.010000   
    121. D(B   1,B   7,B   2,B   5)     -9.6329         0.010000   
    122. D(B  10,B   7,B   0,B   9)     97.5936         0.010000   
    123. D(B   0,B   7,B   2,B  10)     24.9573         0.010000   
    124. D(B  10,B   7,B   1,B   5)    -93.3736         0.010000   
    125. D(B   1,B   7,B   6,B   3)     48.5700         0.010000   
    126. D(B   0,B   7,B   6,B  10)      7.8316         0.010000   
    127. D(B   1,B   7,B   0,B  10)    -35.1295         0.010000   
    128. D(B   0,B   7,B   6,B   8)    -53.3369         0.010000   
    129. D(B   1,B   7,B   6,B   8)   -106.6000         0.010000   
    130. D(B   1,B   7,B   0,B   9)     62.4641         0.010000   
    131. D(B  10,B   7,B   2,B   5)     36.7880         0.010000   
    132. D(B  10,B   8,B   0,B   7)     20.7504         0.010000   
    133. D(B   0,B   8,B   6,B  10)     70.7218         0.010000   
    134. D(B   0,B   8,B   6,B   7)    112.4276         0.010000   
    135. D(B   0,B   8,B   6,B   3)     78.8355         0.010000   
    136. D(B  10,B   8,B   6,B   7)     41.7058         0.010000   
    137. D(B  10,B   8,B   6,B   3)      8.1137         0.010000   
    138. D(B   9,B   8,B   0,B  10)    -49.0734         0.010000   
    139. D(B   6,B   8,B   0,B   7)    -76.3653         0.010000   
    140. D(B   6,B   8,B   0,B  10)    -97.1157         0.010000   
    141. D(B   6,B   8,B   0,B   9)    -48.0422         0.010000   
    142. D(B   9,B   8,B   6,B   3)     66.4687         0.010000   
    143. D(B  10,B   8,B   0,B   9)     49.0734         0.010000   
    144. D(B   4,B   9,B   8,B   0)    177.5913         0.010000   
    145. D(B   8,B   9,B   4,B  11)     75.3757         0.010000   
    146. D(B  10,B   9,B   0,B   7)     -9.3683         0.010000   
    147. D(B   4,B   9,B   0,B   8)     -3.7279         0.010000   
    148. D(B   4,B   9,B   0,B  10)     15.8752         0.010000   
    149. D(B  10,B   9,B   0,B   8)    -19.6031         0.010000   
    150. D(B   0,B   9,B   4,B  11)     77.9281         0.010000   
    151. D(B   8,B   9,B   0,B  10)     19.6031         0.010000   
    152. D(B   4,B   9,B   0,B   7)      6.5068         0.010000   
    153. D(B   0,B   9,B   8,B  10)   -126.1636         0.010000   
    154. D(B   4,B   9,B   8,B  10)     51.4277         0.010000   
    155. D(B   0,B   9,B   8,B   6)    126.8315         0.010000   
    156. D(B  10,B   9,B   4,B  11)     91.2040         0.010000   
    157. D(B  10,B   9,B   8,B   0)    126.1636         0.010000   
    158. D(B   4,B   9,B   8,B   6)    -55.5772         0.010000   
    159. D(B   7,B  10,B   0,B   9)    -84.6667         0.010000   
    160. D(B   0,B  10,B   8,B   9)     12.3481         0.010000   
    161. D(B   0,B  10,B   8,B   6)     69.1356         0.010000   
    162. D(B   7,B  10,B   8,B   6)    -80.8581         0.010000   
    163. D(B   7,B  10,B   8,B   0)   -149.9937         0.010000   
    164. D(B   9,B  10,B   7,B   2)     35.4104         0.024073   
    165. D(B   9,B  10,B   7,B   0)    -28.6099         0.024073   
    166. D(B   9,B  10,B   7,B   6)    -13.6737         0.024073   
    167. D(B   0,B  10,B   7,B   2)     64.0203         0.024073   
    168. D(B   0,B  10,B   7,B   1)    134.7036         0.024073   
    169. D(B   0,B  10,B   7,B   6)     14.9362         0.024073   
    170. D(B   8,B  10,B   7,B   2)    120.0412         0.024073   
    171. D(B   8,B  10,B   7,B   1)   -169.2755         0.024073   
    172. D(B   8,B  10,B   7,B   6)     70.9571         0.024073   
    173. D(B   9,B  10,B   6,B   7)    169.6720         0.010000   
    174. D(B   9,B  10,B   6,B   8)   -110.3325         0.010000   
    175. D(B   0,B  10,B   6,B   7)   -170.4248         0.010000   
    176. D(B   0,B  10,B   6,B   8)    -90.4293         0.010000   
    177. D(B   0,B  10,B   6,B   3)     95.7211         0.010000   
    178. D(B   8,B  10,B   6,B   3)   -173.8495         0.010000   
    179. D(B   7,B  10,B   6,B   8)     79.9955         0.010000   
    180. D(B   7,B  10,B   6,B   3)    -93.8541         0.010000   
    181. D(B   6,B  10,B   5,B   1)   -170.6325         0.010000   
    182. D(B   9,B  10,B   5,B   2)   -102.7116         0.010000   
    183. D(B   9,B  10,B   5,B   1)    129.4257         0.010000   
    184. D(B   0,B  10,B   5,B   2)   -110.9165         0.010000   
    185. D(B   8,B  10,B   5,B   2)    -34.2750         0.010000   
    186. D(B   8,B  10,B   5,B   1)   -162.1378         0.010000   
    187. D(B   7,B  10,B   5,B   2)     34.4958         0.010000   
    188. D(B   7,B  10,B   5,B   1)    -93.3670         0.010000   
    189. D(B   6,B  10,B   2,B   5)    120.0838         0.010000   
    190. D(B   0,B  10,B   5,B   1)    121.2208         0.010000   
    191. D(B   6,B  10,B   2,B   7)   -109.7299         0.010000   
    192. D(B   9,B  10,B   2,B   5)     72.8557         0.010000   
    193. D(B   9,B  10,B   2,B   7)   -156.9581         0.010000   
    194. D(B   0,B  10,B   2,B   5)     84.8806         0.010000   
    195. D(B   0,B  10,B   2,B   7)   -144.9331         0.010000   
    196. D(B   8,B  10,B   2,B   5)    170.9575         0.010000   
    197. D(B   8,B  10,B   2,B   7)    -58.8562         0.010000   
    198. D(B   8,B  10,B   6,B   7)    -79.9955         0.010000   
    199. D(B   7,B  10,B   2,B   5)   -130.1863         0.010000   
    200. D(B   6,B  10,B   1,B   7)    -79.8335         0.010000   
    201. D(B   6,B  10,B   1,B   5)     10.8831         0.010000   
    202. D(B   9,B  10,B   6,B   3)     75.8179         0.010000   
    203. D(B   9,B  10,B   1,B   7)   -139.6830         0.010000   
    204. D(B   9,B  10,B   1,B   5)    -48.9664         0.010000   
    205. D(B   0,B  10,B   1,B   7)   -153.6627         0.010000   
    206. D(B   8,B  10,B   7,B   0)     56.0209         0.024073   
    207. D(B   0,B  10,B   1,B   5)    -62.9460         0.010000   
    208. D(B   8,B  10,B   1,B   7)     64.4607         0.010000   
    209. D(B   8,B  10,B   1,B   5)    155.1774         0.010000   
    210. D(B   7,B  10,B   1,B   5)     90.7167         0.010000   
    211. D(B   1,B  10,B   0,B   9)     48.2393         0.010000   
    212. D(B   6,B  10,B   0,B   7)     15.7024         0.010000   
    213. D(B   6,B  10,B   0,B   8)     69.9550         0.010000   
    214. D(B   9,B  10,B   7,B   1)    106.0937         0.024073   
    215. D(B   6,B  10,B   9,B   8)     61.5846         0.010000   
    216. D(B   6,B  10,B   0,B   9)    -68.9642         0.010000   
    217. D(B   0,B  10,B   9,B   8)    -41.0018         0.010000   
    218. D(B   7,B  10,B   8,B   9)   -137.6456         0.010000   
    219. D(B   0,B  10,B   9,B   4)   -169.8564         0.010000   
    220. D(B   9,B  10,B   0,B   7)     84.6667         0.010000   
    221. D(B   9,B  10,B   8,B   0)    -12.3481         0.010000   
    222. D(B   9,B  10,B   8,B   6)     56.7875         0.010000   
    223. D(B   9,B  10,B   0,B   8)    138.9192         0.010000   
    224. D(B   7,B  10,B   9,B   8)     76.6282         0.010000   
    225. D(B   7,B  10,B   9,B   4)    -52.2263         0.010000   
    226. D(B   8,B  10,B   0,B   7)    -54.2526         0.010000   
    227. D(B   7,B  10,B   9,B   0)    117.6300         0.010000   
    228. D(B   1,B  10,B   8,B   0)    143.3831         0.010000   
    229. D(B   8,B  10,B   9,B   0)     41.0018         0.010000   
    230. D(B   8,B  10,B   9,B   4)   -128.8546         0.010000   
    231. D(B   8,B  10,B   0,B   9)   -138.9192         0.010000   
    232. D(B   6,B  10,B   8,B   9)    -56.7875         0.010000   
    233. D(B   6,B  10,B   9,B   0)    102.5864         0.010000   
    234. D(B   6,B  10,B   9,B   4)    -67.2700         0.010000   
    235. D(B   6,B  10,B   8,B   0)    -69.1356         0.010000   
    236. D(B   7,B  10,B   0,B   8)     54.2526         0.010000   
    237. D(B   3,B  11,B   4,B   9)   -120.1546         0.010000   
    238. D(B   4,B  11,B   3,B   6)     97.4899         0.010000   
    -----------------------------------------------------------------

Number of atoms                         .... 12
Number of degrees of freedom            .... 238


         *************************************************************
         *                GEOMETRY OPTIMIZATION CYCLE   1            *
         *************************************************************
---------------------------------
CARTESIAN COORDINATES (ANGSTROEM)
---------------------------------
  B    -2.789998    0.408996    2.324246
  B     1.395197    3.242209    0.388268
  B     2.840100   -0.391340   -1.643068
  B    -0.281596   -3.599056   -2.252977
  B    -2.413846    0.380513   -2.710005
  B     0.904761    2.756186   -0.545204
  B     0.161993   -3.509910   -0.282987
  B     2.699846    0.875428    1.374229
  B     1.645962    0.046120    3.057720
  B    -3.452303    0.421054    0.787574
  B     1.368351    1.442555    1.715881
  B    -2.078466   -2.072755   -2.213676

----------------------------
CARTESIAN COORDINATES (A.U.)
----------------------------
  NO LB    ZA    FRAG    MASS        X           Y           Z
   0 B   5.0000    0    10.810   -5.272332    0.772891    4.392189
   1 B   5.0000    0    10.810    2.636539    6.126888    0.733721
   2 B   5.0000    0    10.810    5.367011   -0.739526   -3.104948
   3 B   5.0000    0    10.810   -0.532139   -6.801229   -4.257509
   4 B   5.0000    0    10.810   -4.561507    0.719065   -5.121168
   5 B   5.0000    0    10.810    1.709750    5.208436   -1.030287
   6 B   5.0000    0    10.810    0.306122   -6.632768   -0.534768
   7 B   5.0000    0    10.810    5.101970    1.654319    2.596916
   8 B   5.0000    0    10.810    3.110418    0.087154    5.778253
   9 B   5.0000    0    10.810   -6.523908    0.795677    1.488298
  10 B   5.0000    0    10.810    2.585809    2.726033    3.242546
  11 B   5.0000    0    10.810   -3.927731   -3.916940   -4.183241

      -----------------------------------------------------------      
     |                   =====================                   |     
     |                           x T B                           |     
     |                   =====================                   |     
     |                         S. Grimme                         |     
     |          Mulliken Center for Theoretical Chemistry        |     
     |                    University of Bonn                     |     
      -----------------------------------------------------------      

   * xtb version 6.6.1 (unknown) compiled by 'builduser@buildhost' on 2023-08-07

   xtb is free software: you can redistribute it and/or modify it under
   the terms of the GNU Lesser General Public License as published by
   the Free Software Foundation, either version 3 of the License, or
   (at your option) any later version.
   
   xtb is distributed in the hope that it will be useful,
   but WITHOUT ANY WARRANTY; without even the implied warranty of
   MERCHANTABILITY or FITNESS FOR A PARTICULAR PURPOSE.  See the
   GNU Lesser General Public License for more details.
   
   Cite this work as:
   * C. Bannwarth, E. Caldeweyher, S. Ehlert, A. Hansen, P. Pracht,
     J. Seibert, S. Spicher, S. Grimme, WIREs Comput. Mol. Sci., 2020, 11,
     e01493. DOI: 10.1002/wcms.1493
   
   for GFN2-xTB:
   * C. Bannwarth, S. Ehlert and S. Grimme., J. Chem. Theory Comput., 2019,
     15, 1652-1671. DOI: 10.1021/acs.jctc.8b01176
   for GFN1-xTB:
   * S. Grimme, C. Bannwarth, P. Shushkov, J. Chem. Theory Comput., 2017,
     13, 1989-2009. DOI: 10.1021/acs.jctc.7b00118
   for GFN0-xTB:
   * P. Pracht, E. Caldeweyher, S. Ehlert, S. Grimme, ChemRxiv, 2019, preprint.
     DOI: 10.26434/chemrxiv.8326202.v1
   for GFN-FF:
   * S. Spicher and S. Grimme, Angew. Chem. Int. Ed., 2020, 59, 15665-15673.
     DOI: 10.1002/anie.202004239
   
   for ALPB and GBSA implicit solvation:
   * S. Ehlert, M. Stahn, S. Spicher, S. Grimme, J. Chem. Theory Comput.,
     2021, 17, 4250-4261. DOI: 10.1021/acs.jctc.1c00471
   
   for DFT-D4:
   * E. Caldeweyher, C. Bannwarth and S. Grimme, J. Chem. Phys., 2017,
     147, 034112. DOI: 10.1063/1.4993215
   * E. Caldeweyher, S. Ehlert, A. Hansen, H. Neugebauer, S. Spicher,
     C. Bannwarth and S. Grimme, J. Chem. Phys., 2019, 150, 154122.
     DOI: 10.1063/1.5090222
   * E. Caldeweyher, J.-M. Mewes, S. Ehlert and S. Grimme, Phys. Chem. Chem. Phys.
     2020, 22, 8499-8512. DOI: 10.1039/D0CP00502A
   
   for sTDA-xTB:
   * S. Grimme and C. Bannwarth, J. Chem. Phys., 2016, 145, 054103.
     DOI: 10.1063/1.4959605
   
   in the mass-spec context:
   * V. Asgeirsson, C. Bauer and S. Grimme, Chem. Sci., 2017, 8, 4879.
     DOI: 10.1039/c7sc00601b
   * J. Koopman and S. Grimme, ACS Omega 2019, 4, 12, 15120-15133.
     DOI: 10.1021/acsomega.9b02011
   
   for metadynamics refer to:
   * S. Grimme, J. Chem. Theory Comput., 2019, 155, 2847-2862
     DOI: 10.1021/acs.jctc.9b00143
   
   for SPH calculations refer to:
   * S. Spicher and S. Grimme, J. Chem. Theory Comput., 2021, 17, 1701-1714
     DOI: 10.1021/acs.jctc.0c01306
   
   with help from (in alphabetical order)
   P. Atkinson, C. Bannwarth, F. Bohle, G. Brandenburg, E. Caldeweyher
   M. Checinski, S. Dohm, S. Ehlert, S. Ehrlich, I. Gerasimov, C. Hölzer
   A. Katbashev, J. Koopman, C. Lavigne, S. Lehtola, F. März, M. Müller,
   F. Musil, H. Neugebauer, J. Pisarek, C. Plett, P. Pracht, F. Pultar,
   J. Seibert, P. Shushkov, S. Spicher, M. Stahn, M. Steiner, T. Strunk,
   J. Stückrath, T. Rose, and J. Unsleber
   
 * started run on 2026/04/17 at 12:14:51.773     

           -------------------------------------------------
          |                Calculation Setup                |
           -------------------------------------------------

          program call               : /usr/bin/xtb random_d2.10_005_m3_XTB.xyz --grad -c 0 -u 2 -P 1 --namespace random_d2.10_005_m3 --input random_d2.10_005_m3_XTB.input.tmp --acc 0.200000
          calculation namespace      : random_d2.10_005_m3
          coordinate file            : random_d2.10_005_m3_XTB.xyz
          omp threads                :                     1

   ID    Z sym.   atoms
    1    5 B      1-12

molecular fragmentation (1/2 indicates fragments):
122222222122
# atoms in fragment 1/2:     2    10
 fragment masses (1/2) :       21.62      108.11
CMA distance (Bohr)    :   7.964
constraining FC (au)   :  0.0500

           -------------------------------------------------
          |                 G F N 2 - x T B                 |
           -------------------------------------------------

        Reference                      10.1021/acs.jctc.8b01176
      * Hamiltonian:
        H0-scaling (s, p, d)           1.850000    2.230000    2.230000
        zeta-weighting                 0.500000
      * Dispersion:
        s8                             2.700000
        a1                             0.520000
        a2                             5.000000
        s9                             5.000000
      * Repulsion:
        kExp                           1.500000    1.000000
        rExp                           1.000000
      * Coulomb:
        alpha                          2.000000
        third order                    shell-resolved
        anisotropic                    true
        a3                             3.000000
        a5                             4.000000
        cn-shift                       1.200000
        cn-exp                         4.000000
        max-rad                        5.000000


          ...................................................
          :                      SETUP                      :
          :.................................................:
          :  # basis functions                  48          :
          :  # atomic orbitals                  48          :
          :  # shells                           24          :
          :  # electrons                        36          :
          :  max. iterations                   250          :
          :  Hamiltonian                  GFN2-xTB          :
          :  restarted?                      false          :
          :  GBSA solvation                  false          :
          :  PC potential                    false          :
          :  electronic temp.          300.0000000     K    :
          :  accuracy                    0.2000000          :
          :  -> integral cutoff          0.3198970E+02      :
          :  -> integral neglect         0.2000000E-08      :
          :  -> SCF convergence          0.2000000E-06 Eh   :
          :  -> wf. convergence          0.2000000E-04 e    :
          :  Broyden damping             0.4000000          :
          ...................................................

 iter      E             dE          RMSdq      gap      omega  full diag
   1    -11.8620993 -0.118621E+02  0.200E+01    0.19       0.0  T
   2     24.4072239  0.362693E+02  0.308E+01    0.02       1.0  T
   3     21.2004307 -0.320679E+01  0.279E+01    0.26       1.0  T
   4      4.2150866 -0.169853E+02  0.221E+01    0.41       1.0  T
   5      8.5242015  0.430911E+01  0.230E+01    0.12       1.0  T
   6      2.1626436 -0.636156E+01  0.214E+01    0.20       1.0  T
   7     -3.4960628 -0.565871E+01  0.158E+01    0.04       1.0  T
   8     -5.0805159 -0.158445E+01  0.171E+01    0.26       1.0  T
   9    -10.6671628 -0.558665E+01  0.134E+01    0.10       1.0  T
  10     -9.7528006  0.914362E+00  0.124E+01    0.03       1.0  T
  11     -7.5843431  0.216846E+01  0.123E+01    0.30       1.0  T
  12    -11.6464835 -0.406214E+01  0.107E+01    0.01       1.0  T
  13    -11.6204051  0.260784E-01  0.971E+00    0.13       1.0  T
  14    -10.7122328  0.908172E+00  0.114E+01    0.33       1.0  T
  15    -10.9448698 -0.232637E+00  0.110E+01    0.05       1.0  T
  16    -10.9709059 -0.260361E-01  0.110E+01    0.07       1.0  T
  17    -10.9976534 -0.267475E-01  0.110E+01    0.09       1.0  T
  18    -11.3219363 -0.324283E+00  0.995E+00    0.13       1.0  T
  19    -11.7610694 -0.439133E+00  0.920E+00    0.02       1.0  T
  20    -11.5178039  0.243265E+00  0.945E+00    0.07       1.0  T
  21    -11.4029620  0.114842E+00  0.944E+00    0.09       1.0  T
  22    -11.3962367  0.672522E-02  0.942E+00    0.09       1.0  T
  23    -11.2355666  0.160670E+00  0.947E+00    0.11       1.0  T
  24    -11.4327817 -0.197215E+00  0.943E+00    0.10       1.0  T
  25    -12.0658545 -0.633073E+00  0.875E+00    0.02       1.0  T
  26    -12.0679907 -0.213623E-02  0.880E+00    0.01       1.0  T
  27    -12.0679458  0.449143E-04  0.881E+00    0.01       1.0  T
  28    -11.7411030  0.326843E+00  0.978E+00    0.05       1.0  T
  29    -11.7826522 -0.415492E-01  0.959E+00    0.10       1.0  T
  30    -11.7487867  0.338655E-01  0.952E+00    0.11       1.0  T
  31    -11.6637740  0.850128E-01  0.962E+00    0.07       1.0  T
  32    -11.4935148  0.170259E+00  0.979E+00    0.01       1.0  T
  33    -11.8633982 -0.369883E+00  0.856E+00    0.03       1.0  T
  34    -11.7849697  0.784285E-01  0.877E+00    0.02       1.0  T
  35    -11.7812028  0.376696E-02  0.879E+00    0.02       1.0  T
  36    -11.6149404  0.166262E+00  0.886E+00    0.01       1.0  T
  37    -12.1141527 -0.499212E+00  0.803E+00    0.04       1.0  T
  38     -9.3494875  0.276467E+01  0.114E+01    0.16       1.0  T
  39    -10.2156948 -0.866207E+00  0.104E+01    0.08       1.0  T
  40    -11.4584481 -0.124275E+01  0.932E+00    0.03       1.0  T
  41     -6.2078286  0.525062E+01  0.147E+01    0.14       1.0  T
  42     -6.3528249 -0.144996E+00  0.145E+01    0.14       1.0  T
  43     -6.8537260 -0.500901E+00  0.140E+01    0.14       1.0  T
  44     -7.4816971 -0.627971E+00  0.132E+01    0.15       1.0  T
  45     -7.4151843  0.665128E-01  0.133E+01    0.15       1.0  T
  46     -7.3001271  0.115057E+00  0.135E+01    0.12       1.0  T
  47     -7.3519254 -0.517983E-01  0.130E+01    0.07       1.0  T
  48     -7.0928804  0.259045E+00  0.135E+01    0.09       1.0  T
  49    -10.6649721 -0.357209E+01  0.933E+00    0.05       1.0  T
  50     -9.5522836  0.111269E+01  0.108E+01    0.02       1.0  T
  51     -9.4487980  0.103486E+00  0.110E+01    0.02       1.0  T
  52    -10.7974659 -0.134867E+01  0.958E+00    0.05       1.0  T
  53    -10.9131453 -0.115679E+00  0.940E+00    0.05       1.0  T
  54    -10.8912587  0.218866E-01  0.941E+00    0.06       1.0  T
  55    -11.6600266 -0.768768E+00  0.815E+00    0.06       1.0  T
  56    -11.7132770 -0.532504E-01  0.772E+00    0.06       1.0  T
  57    -12.0112437 -0.297967E+00  0.730E+00    0.02       1.0  T
  58    -12.0580225 -0.467788E-01  0.780E+00    0.03       1.0  T
  59    -11.9573979  0.100625E+00  0.748E+00    0.02       1.0  T
  60    -11.9479827  0.941525E-02  0.730E+00    0.02       1.0  T
  61    -11.9098617  0.381210E-01  0.706E+00    0.01       1.0  T
  62    -12.2315493 -0.321688E+00  0.619E+00    0.02       1.0  T
  63    -12.2406020 -0.905271E-02  0.620E+00    0.01       1.0  T
  64    -12.1830882  0.575137E-01  0.624E+00    0.03       1.0  T
  65    -12.1485708  0.345174E-01  0.628E+00    0.03       1.0  T
  66    -12.1974573 -0.488865E-01  0.616E+00    0.03       1.0  T
  67    -12.2072884 -0.983105E-02  0.614E+00    0.03       1.0  T
  68    -12.1147515  0.925369E-01  0.640E+00    0.03       1.0  T
  69    -12.1213304 -0.657888E-02  0.641E+00    0.03       1.0  T
  70    -12.1165139  0.481649E-02  0.630E+00    0.02       1.0  T
  71    -12.0871573  0.293565E-01  0.631E+00    0.03       1.0  T
  72    -12.0396231  0.475342E-01  0.649E+00    0.04       1.0  T
  73    -12.1108541 -0.712310E-01  0.617E+00    0.00       1.0  T
  74    -12.0833197  0.275345E-01  0.638E+00    0.03       1.0  T
  75    -12.1191040 -0.357843E-01  0.620E+00    0.03       1.0  T
  76    -12.1252515 -0.614749E-02  0.632E+00    0.04       1.0  T
  77    -12.2053613 -0.801098E-01  0.598E+00    0.03       1.0  T
  78    -12.2267776 -0.214163E-01  0.599E+00    0.03       1.0  T
  79    -12.2691580 -0.423804E-01  0.607E+00    0.03       1.0  T
  80    -12.2098552  0.593028E-01  0.648E+00    0.01       1.0  T
  81    -12.1177443  0.921109E-01  0.667E+00    0.01       1.0  T
  82    -12.0518844  0.658599E-01  0.681E+00    0.02       1.0  T
  83    -12.0160539  0.358304E-01  0.688E+00    0.03       1.0  T
  84    -12.0500007 -0.339468E-01  0.683E+00    0.03       1.0  T
  85    -11.9515772  0.984236E-01  0.698E+00    0.04       1.0  T
  86    -11.9031398  0.484374E-01  0.710E+00    0.05       1.0  T
  87    -11.8927789  0.103609E-01  0.711E+00    0.05       1.0  T
  88    -11.8238655  0.689133E-01  0.724E+00    0.05       1.0  T
  89    -11.8857709 -0.619054E-01  0.715E+00    0.05       1.0  T
  90    -11.8415965  0.441744E-01  0.724E+00    0.05       1.0  T
  91    -11.8442735 -0.267698E-02  0.721E+00    0.05       1.0  T
  92    -11.8487904 -0.451695E-02  0.719E+00    0.05       1.0  T
  93    -11.8613356 -0.125451E-01  0.700E+00    0.06       1.0  T
  94    -11.8785091 -0.171735E-01  0.698E+00    0.06       1.0  T
  95    -11.7411651  0.137344E+00  0.733E+00    0.06       1.0  T
  96    -11.5441873  0.196978E+00  0.770E+00    0.05       1.0  T
  97    -11.5725060 -0.283187E-01  0.766E+00    0.05       1.0  T
  98    -11.3476882  0.224818E+00  0.802E+00    0.05       1.0  T
  99    -11.4292467 -0.815585E-01  0.789E+00    0.05       1.0  T
 100    -11.4978539 -0.686072E-01  0.779E+00    0.05       1.0  T
 101    -11.3691628  0.128691E+00  0.803E+00    0.06       1.0  T
 102    -11.5017571 -0.132594E+00  0.784E+00    0.06       1.0  T
 103    -11.6110028 -0.109246E+00  0.764E+00    0.06       1.0  T
 104    -11.6042575  0.674528E-02  0.756E+00    0.06       1.0  T
 105    -12.0562364 -0.451979E+00  0.659E+00    0.05       1.0  T
 106    -12.2481953 -0.191959E+00  0.618E+00    0.04       1.0  T
 107    -12.4518463 -0.203651E+00  0.574E+00    0.03       1.0  T
 108    -12.5581954 -0.106349E+00  0.552E+00    0.02       1.0  T
 109    -12.6373576 -0.791622E-01  0.538E+00    0.02       1.0  T
 110    -12.6538380 -0.164805E-01  0.528E+00    0.01       1.0  T
 111    -12.8145568 -0.160719E+00  0.482E+00    0.01       1.0  T
 112    -12.8817607 -0.672039E-01  0.456E+00    0.02       1.0  T
 113    -12.8817732 -0.124527E-04  0.456E+00    0.02       1.0  T
 114    -12.8828211 -0.104793E-02  0.456E+00    0.02       1.0  T
 115    -12.8748759  0.794519E-02  0.433E+00    0.03       1.0  T
 116    -12.9131292 -0.382533E-01  0.379E+00    0.04       1.0  T
 117    -12.8602779  0.528513E-01  0.350E+00    0.05       1.0  T
 118    -12.8485283  0.117497E-01  0.344E+00    0.05       1.0  T
 119    -12.8698392 -0.213110E-01  0.337E+00    0.06       1.0  T
 120    -12.8648445  0.499476E-02  0.334E+00    0.06       1.0  T
 121    -12.8757381 -0.108936E-01  0.330E+00    0.06       1.0  T
 122    -12.8345134  0.412247E-01  0.327E+00    0.05       1.0  T
 123    -12.8254311  0.908232E-02  0.322E+00    0.06       1.0  T
 124    -12.8822565 -0.568254E-01  0.281E+00    0.06       1.0  T
 125    -12.9137604 -0.315040E-01  0.255E+00    0.05       1.0  T
 126    -12.9355890 -0.218285E-01  0.239E+00    0.04       1.0  T
 127    -12.9335713  0.201767E-02  0.240E+00    0.04       1.0  T
 128    -12.8724573  0.611140E-01  0.294E+00    0.04       1.0  T
 129    -12.9171971 -0.447398E-01  0.223E+00    0.05       1.0  T
 130    -12.9114497  0.574737E-02  0.213E+00    0.06       1.0  T
 131    -12.9141876 -0.273786E-02  0.187E+00    0.07       1.0  T
 132    -12.9118333  0.235424E-02  0.188E+00    0.07       1.0  T
 133    -12.9155040 -0.367069E-02  0.185E+00    0.07       1.0  T
 134    -12.9163958 -0.891729E-03  0.183E+00    0.07       1.0  T
 135    -12.9109821  0.541364E-02  0.186E+00    0.07       1.0  T
 136    -12.9006786  0.103035E-01  0.185E+00    0.07       1.0  T
 137    -12.9033878 -0.270920E-02  0.182E+00    0.07       1.0  T
 138    -12.9019161  0.147166E-02  0.183E+00    0.06       1.0  T
 139    -12.8954793  0.643683E-02  0.179E+00    0.06       1.0  T
 140    -12.8832907  0.121887E-01  0.184E+00    0.05       1.0  T
 141    -12.8629360  0.203547E-01  0.198E+00    0.04       1.0  T
 142    -12.8596469  0.328905E-02  0.206E+00    0.04       1.0  T
 143    -12.8383638  0.212831E-01  0.220E+00    0.03       1.0  T
 144    -12.8638113 -0.254475E-01  0.212E+00    0.02       1.0  T
 145    -12.8674659 -0.365455E-02  0.207E+00    0.02       1.0  T
 146    -12.9148818 -0.474159E-01  0.171E+00    0.03       1.0  T
 147    -12.9252226 -0.103408E-01  0.168E+00    0.04       1.0  T
 148    -12.9242503  0.972335E-03  0.148E+00    0.04       1.0  T
 149    -12.9445791 -0.203288E-01  0.129E+00    0.04       1.0  T
 150    -12.9530633 -0.848419E-02  0.105E+00    0.05       1.0  T
 151    -12.9572599 -0.419665E-02  0.105E+00    0.06       1.0  T
 152    -12.9625756 -0.531564E-02  0.999E-01    0.06       1.0  T
 153    -12.9594307  0.314484E-02  0.782E-01    0.06       1.0  T
 154    -12.9566468  0.278397E-02  0.746E-01    0.06       1.0  T
 155    -12.9529324  0.371435E-02  0.757E-01    0.06       1.0  T
 156    -12.9543667 -0.143429E-02  0.715E-01    0.06       1.0  T
 157    -12.9601743 -0.580754E-02  0.545E-01    0.06       1.0  T
 158    -12.9638744 -0.370017E-02  0.473E-01    0.05       1.0  T
 159    -12.9652892 -0.141480E-02  0.501E-01    0.05       1.0  T
 160    -12.9656326 -0.343340E-03  0.523E-01    0.05       1.0  T
 161    -12.9655215  0.111111E-03  0.521E-01    0.05       1.0  T
 162    -12.9652803  0.241143E-03  0.490E-01    0.05       1.0  T
 163    -12.9651328  0.147535E-03  0.463E-01    0.05       1.0  T
 164    -12.9650995  0.332742E-04  0.414E-01    0.05       1.0  T
 165    -12.9650089  0.905663E-04  0.370E-01    0.05       1.0  T
 166    -12.9652695 -0.260585E-03  0.340E-01    0.05       1.0  T
 167    -12.9656504 -0.380887E-03  0.309E-01    0.05       1.0  T
 168    -12.9659441 -0.293687E-03  0.292E-01    0.05       1.0  T
 169    -12.9661818 -0.237737E-03  0.274E-01    0.05       1.0  T
 170    -12.9663398 -0.157971E-03  0.250E-01    0.05       1.0  T
 171    -12.9664047 -0.648794E-04  0.229E-01    0.05       1.0  T
 172    -12.9664477 -0.430170E-04  0.213E-01    0.05       1.0  T
 173    -12.9664983 -0.506178E-04  0.198E-01    0.05       1.0  T
 174    -12.9665599 -0.615693E-04  0.185E-01    0.05       1.0  T
 175    -12.9666529 -0.930480E-04  0.172E-01    0.05       1.0  T
 176    -12.9667208 -0.679124E-04  0.160E-01    0.05       1.0  T
 177    -12.9667439 -0.230634E-04  0.149E-01    0.05       1.0  T
 178    -12.9667626 -0.186659E-04  0.137E-01    0.05       1.0  T
 179    -12.9667963 -0.337470E-04  0.126E-01    0.05       1.0  T
 180    -12.9668222 -0.258815E-04  0.117E-01    0.05       1.0  T
 181    -12.9668414 -0.191979E-04  0.108E-01    0.05       1.0  T
 182    -12.9668644 -0.229824E-04  0.942E-02    0.05       1.0  T
 183    -12.9668786 -0.142210E-04  0.809E-02    0.05       1.0  T
 184    -12.9668854 -0.679337E-05  0.716E-02    0.05       1.0  T
 185    -12.9668929 -0.753092E-05  0.627E-02    0.05       1.0  T
 186    -12.9669002 -0.729459E-05  0.533E-02    0.05       1.0  T
 187    -12.9669052 -0.498767E-05  0.447E-02    0.05       1.0  T
 188    -12.9669089 -0.369957E-05  0.363E-02    0.05       1.0  T
 189    -12.9669117 -0.281517E-05  0.284E-02    0.05       1.0  T
 190    -12.9669136 -0.189179E-05  0.216E-02    0.05       1.3  T
 191    -12.9669149 -0.130258E-05  0.157E-02    0.05       1.8  T
 192    -12.9669157 -0.732417E-06  0.120E-02    0.05       2.4  T
 193    -12.9669159 -0.212075E-06  0.110E-02    0.05       2.6  T
 194    -12.9669159  0.759470E-08  0.119E-02    0.05       2.4  T
 195    -12.9669162 -0.318966E-06  0.112E-02    0.05       2.6  T
 196    -12.9669167 -0.505338E-06  0.550E-03    0.05       5.3  T
 197    -12.9669166  0.727709E-07  0.381E-03    0.05       7.6  T
 198    -12.9669162  0.409662E-06  0.502E-03    0.05       5.7  T
 199    -12.9669160  0.232496E-06  0.610E-03    0.05       4.7  T
 200    -12.9669160 -0.708069E-07  0.577E-03    0.05       5.0  T
 201    -12.9669164 -0.357471E-06  0.467E-03    0.05       6.2  T
 202    -12.9669165 -0.125804E-06  0.388E-03    0.05       7.4  T
 203    -12.9669167 -0.166660E-06  0.283E-03    0.05      10.2  T
 204    -12.9669168 -0.149604E-06  0.140E-03    0.05      20.6  T
 205    -12.9669169 -0.146032E-07  0.766E-04    0.05      37.7  T
 206    -12.9669169 -0.715716E-08  0.367E-04    0.05      78.8  T
 207    -12.9669169 -0.545963E-09  0.217E-04    0.05     133.0  T
 208    -12.9669169 -0.795755E-10  0.192E-04    0.05     150.0  T
 209    -12.9669169  0.122430E-09  0.174E-04    0.05     166.1  T

   *** convergence criteria satisfied after 209 iterations ***

         #    Occupation            Energy/Eh            Energy/eV
      -------------------------------------------------------------
         1        2.0000           -0.4160280             -11.3207
       ...           ...                  ...                  ...
        13        2.0000           -0.2734954              -7.4422
        14        2.0000           -0.2719627              -7.4005
        15        1.9995           -0.2654587              -7.2235
        16        1.7642           -0.2592991              -7.0559
        17        1.6017           -0.2586033              -7.0370
        18        1.4878           -0.2582014              -7.0260
        19        0.7367           -0.2556232              -6.9559 (HOMO)
        20        0.2374           -0.2537874              -6.9059 (LUMO)
        21        0.1689           -0.2533904              -6.8951
        22        0.0022           -0.2490915              -6.7781
        23        0.0016           -0.2487922              -6.7700
        24        0.0000           -0.2425302              -6.5996
       ...           ...                  ...                  ...
        48                          3.8516940             104.8099
      -------------------------------------------------------------
                  HL-Gap            0.0018358 Eh            0.0500 eV
             Fermi-level           -0.2565392 Eh           -6.9808 eV

 transition dipole moment (au) for excitation:          18          19
     X       Y       Z   
  -0.2736   0.4452   0.3908  total (au/Debye):    0.653   1.659
 dE (eV)             :    0.070
 oscillator strength :  0.10350E-02

 SCC (total)                   0 d,  0 h,  0 min,  0.775 sec
 SCC setup                      ...        0 min,  0.000 sec (  0.015%)
 Dispersion                     ...        0 min,  0.000 sec (  0.011%)
 classical contributions        ...        0 min,  0.000 sec (  0.004%)
 integral evaluation            ...        0 min,  0.002 sec (  0.286%)
 iterations                     ...        0 min,  0.763 sec ( 98.500%)
 molecular gradient             ...        0 min,  0.006 sec (  0.721%)
 printout                       ...        0 min,  0.004 sec (  0.459%)

         :::::::::::::::::::::::::::::::::::::::::::::::::::::
         ::                     SUMMARY                     ::
         :::::::::::::::::::::::::::::::::::::::::::::::::::::
         :: total energy             -12.658037289486 Eh    ::
         :: gradient norm              1.100415155549 Eh/a0 ::
         :: HOMO-LUMO gap              0.049953665946 eV    ::
         ::.................................................::
         :: SCC energy               -12.966916859526 Eh    ::
         :: -> isotropic ES            0.053610000302 Eh    ::
         :: -> anisotropic ES          0.001202158608 Eh    ::
         :: -> anisotropic XC         -0.043256564254 Eh    ::
         :: -> dispersion             -0.014556737336 Eh    ::
         :: repulsion energy           0.308459079277 Eh    ::
         :: add. restraining           0.000000000000 Eh    ::
         :: total charge              -0.000000000000 e     ::
         :::::::::::::::::::::::::::::::::::::::::::::::::::::


Property printout bound to 'properties.out'

           -------------------------------------------------
          | TOTAL ENERGY              -12.658037289486 Eh   |
          | GRADIENT NORM               1.100415155549 Eh/α |
          | HOMO-LUMO GAP               0.049953665946 eV   |
           -------------------------------------------------

------------------------------------------------------------------------
 * finished run on 2026/04/17 at 12:14:52.560     
------------------------------------------------------------------------
 total:
 * wall-time:     0 d,  0 h,  0 min,  0.787 sec
 *  cpu-time:     0 d,  0 h,  0 min,  0.787 sec
 * ratio c/w:     1.000 speedup
 SCF:
 * wall-time:     0 d,  0 h,  0 min,  0.775 sec
 *  cpu-time:     0 d,  0 h,  0 min,  0.774 sec
 * ratio c/w:     1.000 speedup


-------------------------   --------------------
FINAL SINGLE POINT ENERGY       -12.658037289490
-------------------------   --------------------


-------------
DIPOLE MOMENT
-------------
                                X             Y             Z
Total Dipole Moment    :      0.03500      -0.90100      -0.24100
                        -----------------------------------------
Magnitude (a.u.)       :      0.93333
Magnitude (Debye)      :      2.37234


------------------
CARTESIAN GRADIENT
------------------

   1   B   :    0.043034353   -0.000761266    0.102415498
   2   B   :   -0.319227033   -0.281898823   -0.627990977
   3   B   :    0.002228413   -0.006236652   -0.015316502
   4   B   :    0.037505227   -0.052791831   -0.094929455
   5   B   :   -0.005301935    0.059251525   -0.018159804
   6   B   :    0.321903881    0.312380684    0.606712123
   7   B   :    0.019585498    0.003908531    0.092464621
   8   B   :    0.026130354    0.023534057   -0.026331326
   9   B   :   -0.013776365   -0.063238971    0.078092009
  10   B   :   -0.046234403    0.001377881   -0.095577451
  11   B   :   -0.014491375    0.017385575   -0.015059104
  12   B   :   -0.051356616   -0.012910710    0.013680368

Difference to translation invariance:
           :    0.0000000000   -0.0000000000    0.0000000000

Difference to rotation invariance:
           :    0.0000000521    0.0000001078   -0.0000000968

Norm of the Cartesian gradient     ...    1.1004151555
RMS gradient                       ...    0.1834025259
MAX gradient                       ...    0.6279909772
------------------------------------------------------------------------------
                         ORCA GEOMETRY RELAXATION STEP
------------------------------------------------------------------------------

Reading the OPT-File                    .... done
Getting information on internals        .... done
Copying old internal coords+grads       .... done
Making the new internal coordinates     .... (2022 redundants) done
Validating the new internal coordinates .... (2022 redundants) done
Calculating the B-matrix                .... done
Calculating the G,G- and P matrices     .... done
Transforming gradient to internals      .... done
Projecting the internal gradient        .... done
Number of atoms                         ....  12
Number of internal coordinates          .... 238
Current Energy                          ....   -12.658037289 Eh
Current gradient norm                   ....     1.100415156 Eh/bohr
Maximum allowed component of the step   ....  0.300
Current trust radius                    ....  0.300
Evaluating the initial hessian          ....  (Almloef) done
Projecting the Hessian                  .... done
Forming the augmented Hessian           .... done
Diagonalizing the augmented Hessian     .... done
Last element of RFO vector              ....  0.862549824
Lowest eigenvalues of augmented Hessian:
 -0.320659616  0.010077322  0.010205529  0.010277217  0.010903299
Length of the computed step             ....  0.586600474
Warning: the length of the step is outside the trust region - taking restricted step instead
The input lambda is                     ....     0.009063
   iter:   5  x=   -0.016116  g= 1683.509592 f(x)=    19.031818
   iter:  10  x=   -0.382181  g=    2.722424 f(x)=     0.429959
   iter:  15  x=   -1.088093  g=    0.094024 f(x)=     0.000127
The output lambda is                    ....    -1.088095 (18 iterations)
The final length of the internal step   ....  0.300000000
Converting the step to Cartesian space:
 Initial RMS(Int)=    0.0194461117
Transforming coordinates:
 Iter   0:  RMS(Cart)=    0.0370642981 RMS(Int)=    0.0194430988
done
Storing new coordinates                 .... done

                                .--------------------.
          ----------------------|Geometry convergence|-------------------------
          Item                value                   Tolerance       Converged
          ---------------------------------------------------------------------
          RMS gradient        0.0434433449            0.0000300000      NO
          MAX gradient        0.5484612959            0.0001000000      NO
          RMS step            0.0194461117            0.0006000000      NO
          MAX step            0.2175650764            0.0010000000      NO
          -------------------------------------------------------------------------
          ........................................................
          Max(Bonds)      0.1151      Max(Angles)    2.53
          Max(Dihed)        1.60      Max(Improp)    0.00
          ---------------------------------------------------------------------

The optimization has not yet converged - more geometry cycles are needed


    ---------------------------------------------------------------------------
                         Redundant Internal Coordinates
                            (Angstroem and degrees)

        Definition                    Value    dE/dq     Step     New-Value
    ----------------------------------------------------------------------------
     1. B(B   5,B   1)                1.1611 -0.548461  0.1151    1.2762   
     2. B(B   5,B   2)                3.8546  0.057925 -0.0119    3.8427   
     3. B(B   6,B   3)                2.0213  0.092257 -0.0418    1.9795   
     4. B(B   7,B   0)                5.5909  0.010716 -0.0040    5.5870   
     5. B(B   7,B   6)                5.3309  0.016032 -0.0042    5.3267   
     6. B(B   7,B   2)                3.2754 -0.009032  0.0013    3.2768   
     7. B(B   7,B   1)                2.8768  0.042550 -0.0120    2.8648   
     8. B(B   8,B   6)                5.0998 -0.002197  0.0015    5.1012   
     9. B(B   8,B   0)                4.5108 -0.024677  0.0085    4.5194   
    10. B(B   9,B   0)                1.6734  0.078051 -0.0314    1.6419   
    11. B(B   9,B   4)                3.6487  0.007204 -0.0034    3.6453   
    12. B(B   9,B   8)                5.5934  0.024199 -0.0119    5.5815   
    13. B(B  10,B   6)                5.4752 -0.002048 -0.0021    5.4731   
    14. B(B  10,B   2)                4.1002 -0.024535  0.0015    4.1017   
    15. B(B  10,B   9)                5.0144  0.008582 -0.0025    5.0119   
    16. B(B  10,B   8)                1.9564  0.069889 -0.0317    1.9247   
    17. B(B  10,B   5)                2.6558 -0.138805  0.0279    2.6836   
    18. B(B  10,B   0)                4.3278 -0.002247  0.0020    4.3299   
    19. B(B  10,B   1)                2.2365  0.045059 -0.0143    2.2222   
    20. B(B  10,B   7)                1.4870 -0.000617 -0.0033    1.4837   
    21. B(B  11,B   4)                2.5253  0.049967 -0.0247    2.5007   
    22. B(B  11,B   3)                2.3579  0.063699 -0.0308    2.3271   
    23. A(B   8,B   0,B  10)           25.47  0.009594   -0.46     25.01   
    24. A(B   7,B   0,B   9)          103.41 -0.011634    0.50    103.91   
    25. A(B   7,B   0,B   8)           21.36  0.010044   -0.45     20.91   
    26. A(B   7,B   0,B  10)            9.15 -0.002437    0.04      9.19   
    27. A(B   9,B   0,B  10)          104.45 -0.012162    0.53    104.97   
    28. A(B   8,B   0,B   9)          122.62 -0.004286    0.15    122.77   
    29. A(B   7,B   1,B  10)           30.68 -0.004961    0.05     30.73   
    30. A(B   5,B   1,B  10)           97.78  0.067119   -1.34     96.44   
    31. A(B   5,B   1,B   7)           97.05  0.056383   -1.08     95.97   
    32. A(B   5,B   2,B   7)           53.15 -0.023546    0.55     53.70   
    33. A(B   7,B   2,B  10)           19.44  0.002198   -0.07     19.36   
    34. A(B   5,B   2,B  10)           38.85 -0.020282    0.46     39.31   
    35. A(B   6,B   3,B  11)           97.03 -0.013901    0.62     97.66   
    36. A(B   9,B   4,B  11)           81.96 -0.004670    0.24     82.21   
    37. A(B   1,B   5,B  10)           56.55  0.044130   -1.19     55.36   
    38. A(B   1,B   5,B   2)          111.02  0.029254   -0.84    110.18   
    39. A(B   2,B   5,B  10)           75.58 -0.002678   -0.02     75.56   
    40. A(B   7,B   6,B  10)           15.75 -0.000080   -0.03     15.72   
    41. A(B   8,B   6,B  10)           20.94  0.007328   -0.35     20.59   
    42. A(B   3,B   6,B  10)          116.36  0.008155   -0.30    116.06   
    43. A(B   7,B   6,B   8)           23.68  0.009514   -0.43     23.26   
    44. A(B   3,B   6,B   7)          116.34  0.005237   -0.19    116.15   
    45. A(B   3,B   6,B   8)          137.14  0.015789   -0.66    136.48   
    46. A(B   2,B   7,B   6)           54.26  0.025542   -0.60     53.66   
    47. A(B   2,B   7,B  10)          113.42 -0.007573    0.13    113.56   
    48. A(B   1,B   7,B   6)          110.75 -0.036132    0.70    111.45   
    49. A(B   1,B   7,B  10)           50.13  0.003016   -0.18     49.95   
    50. A(B   0,B   7,B   1)           71.43 -0.015298    0.25     71.68   
    51. A(B   1,B   7,B   2)           91.25 -0.056855    1.29     92.54   
    52. A(B   0,B   7,B  10)           27.57 -0.007929    0.21     27.78   
    53. A(B   6,B   7,B  10)           87.64 -0.006341    0.11     87.75   
    54. A(B   0,B   7,B   2)           99.57  0.009751   -0.29     99.29   
    55. A(B   0,B   7,B   6)           61.10  0.001620   -0.10     61.00   
    56. A(B   0,B   8,B  10)           72.03  0.002976   -0.05     71.99   
    57. A(B   6,B   8,B   9)           61.03 -0.000110   -0.04     60.99   
    58. A(B   0,B   8,B   6)           70.33  0.005647   -0.26     70.07   
    59. A(B   0,B   8,B   9)           14.59  0.006545   -0.27     14.32   
    60. A(B   6,B   8,B  10)           90.41 -0.007386    0.25     90.66   
    61. A(B   9,B   8,B  10)           62.90 -0.001597    0.15     63.05   
    62. A(B   4,B   9,B  10)           84.61  0.009545   -0.43     84.18   
    63. A(B   0,B   9,B  10)           56.70  0.002973   -0.12     56.58   
    64. A(B   0,B   9,B   4)          140.13  0.013621   -0.59    139.55   
    65. A(B   8,B   9,B  10)           20.32  0.006363   -0.31     20.02   
    66. A(B   4,B   9,B   8)           97.41  0.016162   -0.73     96.68   
    67. A(B   0,B   9,B   8)           42.78 -0.002259    0.13     42.91   
    68. A(B   8,B  10,B   9)           96.78 -0.004766    0.16     96.94   
    69. A(B   0,B  10,B   7)          143.28  0.010366   -0.25    143.03   
    70. A(B   6,B  10,B   9)           62.38  0.001096   -0.09     62.28   
    71. A(B   1,B  10,B   5)           25.67 -0.111249    2.53     28.20   
    72. A(B   5,B  10,B   6)           95.63  0.064528   -1.52     94.11   
    73. A(B   0,B  10,B   6)           67.89  0.004032   -0.18     67.71   
    74. A(B   7,B  10,B   9)          137.78  0.004918   -0.06    137.72   
    75. A(B   5,B  10,B   9)           77.02  0.029163   -0.67     76.35   
    76. A(B   0,B  10,B   5)           94.02  0.029120   -0.86     93.15   
    77. A(B   6,B  10,B   8)           68.66  0.000058    0.09     68.75   
    78. A(B   5,B  10,B   8)          164.10  0.065375   -1.45    162.65   
    79. A(B   5,B  10,B   7)           98.59  0.007027    0.02     98.61   
    80. A(B   6,B  10,B   7)           76.61  0.006421   -0.08     76.53   
    81. A(B   1,B  10,B   6)          120.92 -0.044757    0.97    121.88   
    82. A(B   1,B  10,B   9)           93.76 -0.042203    0.94     94.70   
    83. A(B   0,B  10,B   1)          106.69 -0.027944    0.46    107.14   
    84. A(B   1,B  10,B   8)          168.46  0.052620   -1.24    167.22   
    85. A(B   1,B  10,B   7)           99.19  0.001945    0.12     99.32   
    86. A(B   2,B  10,B   5)           65.57  0.022961   -0.45     65.12   
    87. A(B   2,B  10,B   6)           51.35  0.022940   -0.51     50.84   
    88. A(B   2,B  10,B   9)           95.87  0.003532   -0.02     95.85   
    89. A(B   0,B  10,B   2)          110.68  0.016308   -0.45    110.24   
    90. A(B   2,B  10,B   8)          101.05  0.032269   -0.79    100.26   
    91. A(B   2,B  10,B   7)           47.14  0.005375   -0.06     47.08   
    92. A(B   1,B  10,B   2)           82.49 -0.052386    1.26     83.75   
    93. A(B   0,B  10,B   9)           18.85  0.009189   -0.40     18.45   
    94. A(B   0,B  10,B   8)           82.50 -0.012570    0.51     83.01   
    95. A(B   7,B  10,B   8)           76.01  0.017894   -0.60     75.41   
    96. A(B   3,B  11,B   4)          136.62 -0.011274    0.53    137.14   
    97. D(B   1,B   5,B   2,B  10)     44.89  0.033620   -0.94     43.95   
    98. D(B  10,B   5,B   1,B   7)     30.94 -0.000811   -0.03     30.91   
    99. D(B   2,B   5,B   1,B   7)    -24.06 -0.006399    0.20    -23.86   
   100. D(B   1,B   5,B   2,B   7)     26.36  0.016995   -0.49     25.87   
   101. D(B  10,B   5,B   2,B   7)    -18.52 -0.016624    0.45    -18.08   
   102. D(B   2,B   5,B   1,B  10)    -55.00 -0.005588    0.23    -54.77   
   103. D(B   8,B   6,B   3,B  11)    -60.71 -0.004339    0.18    -60.52   
   104. D(B  10,B   6,B   3,B  11)    -57.48 -0.006369    0.24    -57.24   
   105. D(B   7,B   6,B   3,B  11)    -75.07 -0.007302    0.31    -74.76   
   106. D(B  10,B   7,B   0,B   8)   -106.66 -0.012595    0.50   -106.16   
   107. D(B   0,B   7,B   2,B   5)     61.75  0.014503   -0.42     61.33   
   108. D(B   0,B   7,B   1,B  10)     20.31  0.012291   -0.21     20.09   
   109. D(B   6,B   7,B   1,B  10)     68.05  0.030790   -0.71     67.34   
   110. D(B   6,B   7,B   0,B  10)   -162.89  0.002391   -0.05   -162.95   
   111. D(B   2,B   7,B   1,B   5)     26.61  0.005640   -0.15     26.46   
   112. D(B   6,B   7,B   0,B   8)     90.45 -0.010205    0.45     90.89   
   113. D(B  10,B   7,B   6,B   3)     94.00  0.011662   -0.47     93.53   
   114. D(B   6,B   7,B   2,B   5)    105.26  0.030769   -0.83    104.43   
   115. D(B   0,B   7,B   1,B   5)    -73.07 -0.024351    0.60    -72.47   
   116. D(B   6,B   7,B   0,B   9)    -65.30 -0.000494    0.14    -65.16   
   117. D(B   6,B   7,B   1,B   5)    -25.33 -0.005852    0.10    -25.23   
   118. D(B  10,B   7,B   6,B   8)    -61.17 -0.000893    0.09    -61.08   
   119. D(B   0,B   7,B   6,B   3)    101.83  0.010677   -0.44    101.40   
   120. D(B   6,B   7,B   2,B  10)     68.47  0.017152   -0.42     68.05   
   121. D(B   1,B   7,B   2,B   5)     -9.63  0.040054   -0.90    -10.53   
   122. D(B  10,B   7,B   0,B   9)     97.59 -0.002885    0.19     97.79   
   123. D(B   0,B   7,B   2,B  10)     24.96  0.000887   -0.01     24.95   
   124. D(B  10,B   7,B   1,B   5)    -93.37 -0.036642    0.81    -92.56   
   125. D(B   1,B   7,B   6,B   3)     48.57 -0.003760   -0.02     48.55   
   126. D(B   0,B   7,B   6,B  10)      7.83 -0.000984    0.03      7.86   
   127. D(B   1,B   7,B   0,B  10)    -35.13 -0.035827    0.79    -34.33   
   128. D(B   0,B   7,B   6,B   8)    -53.34 -0.001878    0.12    -53.21   
   129. D(B   1,B   7,B   6,B   8)   -106.60 -0.016314    0.54   -106.06   
   130. D(B   1,B   7,B   0,B   9)     62.46 -0.038712    0.99     63.45   
   131. D(B  10,B   7,B   2,B   5)     36.79  0.013617   -0.41     36.38   
   132. D(B  10,B   8,B   0,B   7)     20.75 -0.014793    0.52     21.27   
   133. D(B   0,B   8,B   6,B  10)     70.72  0.006749   -0.18     70.54   
   134. D(B   0,B   8,B   6,B   7)    112.43 -0.010134    0.49    112.92   
   135. D(B   0,B   8,B   6,B   3)     78.84 -0.001692    0.10     78.94   
   136. D(B  10,B   8,B   6,B   7)     41.71 -0.016883    0.67     42.38   
   137. D(B  10,B   8,B   6,B   3)      8.11 -0.008441    0.28      8.40   
   138. D(B   9,B   8,B   0,B  10)    -49.07  0.003160   -0.14    -49.21   
   139. D(B   6,B   8,B   0,B   7)    -76.37 -0.003193    0.12    -76.25   
   140. D(B   6,B   8,B   0,B  10)    -97.12  0.011599   -0.40    -97.52   
   141. D(B   6,B   8,B   0,B   9)    -48.04  0.008439   -0.26    -48.30   
   142. D(B   9,B   8,B   6,B   3)     66.47 -0.005553    0.28     66.75   
   143. D(B  10,B   8,B   0,B   9)     49.07 -0.003160    0.14     49.21   
   144. D(B   4,B   9,B   8,B   0)    177.59 -0.006128    0.25    177.84   
   145. D(B   8,B   9,B   4,B  11)     75.38  0.000969   -0.06     75.31   
   146. D(B  10,B   9,B   0,B   7)     -9.37  0.002950   -0.06     -9.43   
   147. D(B   4,B   9,B   0,B   8)     -3.73 -0.010417    0.42     -3.31   
   148. D(B   4,B   9,B   0,B  10)     15.88 -0.005335    0.17     16.04   
   149. D(B  10,B   9,B   0,B   8)    -19.60 -0.005082    0.25    -19.35   
   150. D(B   0,B   9,B   4,B  11)     77.93  0.008081   -0.35     77.58   
   151. D(B   8,B   9,B   0,B  10)     19.60  0.005082   -0.25     19.35   
   152. D(B   4,B   9,B   0,B   7)      6.51 -0.002385    0.11      6.62   
   153. D(B   0,B   9,B   8,B  10)   -126.16 -0.001309    0.04   -126.12   
   154. D(B   4,B   9,B   8,B  10)     51.43 -0.007437    0.29     51.72   
   155. D(B   0,B   9,B   8,B   6)    126.83  0.007355   -0.22    126.61   
   156. D(B  10,B   9,B   4,B  11)     91.20  0.003903   -0.22     90.98   
   157. D(B  10,B   9,B   8,B   0)    126.16  0.001309   -0.04    126.12   
   158. D(B   4,B   9,B   8,B   6)    -55.58  0.001227    0.03    -55.55   
   159. D(B   7,B  10,B   0,B   9)    -84.67 -0.000278    0.10    -84.57   
   160. D(B   0,B  10,B   8,B   9)     12.35  0.005082   -0.22     12.13   
   161. D(B   0,B  10,B   8,B   6)     69.14  0.008956   -0.37     68.76   
   162. D(B   7,B  10,B   8,B   6)    -80.86 -0.000624   -0.11    -80.97   
   163. D(B   7,B  10,B   8,B   0)   -149.99 -0.009580    0.26   -149.73   
   164. D(B   9,B  10,B   7,B   2)     35.41  0.014048   -0.07     35.34   
   165. D(B   9,B  10,B   7,B   0)    -28.61 -0.017649    0.69    -27.92   
   166. D(B   9,B  10,B   7,B   6)    -13.67 -0.015269    0.62    -13.05   
   167. D(B   0,B  10,B   7,B   2)     64.02  0.031697   -0.76     63.26   
   168. D(B   0,B  10,B   7,B   1)    134.70 -0.043713    0.91    135.61   
   169. D(B   0,B  10,B   7,B   6)     14.94  0.002380   -0.06     14.87   
   170. D(B   8,B  10,B   7,B   2)    120.04  0.025245   -0.48    119.56   
   171. D(B   8,B  10,B   7,B   1)   -169.28 -0.050164    1.18   -168.09   
   172. D(B   8,B  10,B   7,B   6)     70.96 -0.004072    0.21     71.17   
   173. D(B   9,B  10,B   6,B   7)    169.67 -0.010345    0.45    170.12   
   174. D(B   9,B  10,B   6,B   8)   -110.33  0.006826   -0.20   -110.53   
   175. D(B   0,B  10,B   6,B   7)   -170.42 -0.001115    0.03   -170.40   
   176. D(B   0,B  10,B   6,B   8)    -90.43  0.016055   -0.61    -91.04   
   177. D(B   0,B  10,B   6,B   3)     95.72  0.008277   -0.34     95.38   
   178. D(B   8,B  10,B   6,B   3)   -173.85 -0.007778    0.28   -173.57   
   179. D(B   7,B  10,B   6,B   8)     80.00  0.017170   -0.64     79.35   
   180. D(B   7,B  10,B   6,B   3)    -93.85  0.009392   -0.37    -94.22   
   181. D(B   6,B  10,B   5,B   1)   -170.63 -0.002225   -0.03   -170.66   
   182. D(B   9,B  10,B   5,B   2)   -102.71  0.018817   -0.48   -103.19   
   183. D(B   9,B  10,B   5,B   1)    129.43  0.010276   -0.26    129.16   
   184. D(B   0,B  10,B   5,B   2)   -110.92 -0.002345    0.05   -110.86   
   185. D(B   8,B  10,B   5,B   2)    -34.28  0.005590   -0.05    -34.33   
   186. D(B   8,B  10,B   5,B   1)   -162.14 -0.002951    0.16   -161.97   
   187. D(B   7,B  10,B   5,B   2)     34.50  0.021848   -0.53     33.97   
   188. D(B   7,B  10,B   5,B   1)    -93.37  0.013307   -0.31    -93.68   
   189. D(B   6,B  10,B   2,B   5)    120.08  0.054437   -1.43    118.66   
   190. D(B   0,B  10,B   5,B   1)    121.22 -0.010885    0.27    121.49   
   191. D(B   6,B  10,B   2,B   7)   -109.73  0.023957   -0.58   -110.31   
   192. D(B   9,B  10,B   2,B   5)     72.86  0.036733   -0.86     72.00   
   193. D(B   9,B  10,B   2,B   7)   -156.96  0.006254   -0.01   -156.97   
   194. D(B   0,B  10,B   2,B   5)     84.88  0.035889   -0.98     83.90   
   195. D(B   0,B  10,B   2,B   7)   -144.93  0.005410   -0.14   -145.07   
   196. D(B   8,B  10,B   2,B   5)    170.96  0.036834   -0.80    170.16   
   197. D(B   8,B  10,B   2,B   7)    -58.86  0.006355    0.04    -58.81   
   198. D(B   8,B  10,B   6,B   7)    -80.00 -0.017170    0.64    -79.35   
   199. D(B   7,B  10,B   2,B   5)   -130.19  0.030480   -0.84   -131.03   
   200. D(B   6,B  10,B   1,B   7)    -79.83 -0.006068   -0.04    -79.87   
   201. D(B   6,B  10,B   1,B   5)     10.88 -0.008970    0.10     10.99   
   202. D(B   9,B  10,B   6,B   3)     75.82 -0.000953    0.08     75.90   
   203. D(B   9,B  10,B   1,B   7)   -139.68  0.008070   -0.28   -139.96   
   204. D(B   9,B  10,B   1,B   5)    -48.97  0.005168   -0.14    -49.11   
   205. D(B   0,B  10,B   1,B   7)   -153.66  0.010391   -0.21   -153.87   
[...]
      -------------------------------------------------------------
         1        2.0000           -0.4080055             -11.1024
       ...           ...                  ...                  ...
        13        2.0000           -0.2829258              -7.6988
        14        2.0000           -0.2733764              -7.4389
        15        2.0000           -0.2667380              -7.2583
        16        2.0000           -0.2613249              -7.1110
        17        1.9929           -0.2557100              -6.9582
        18        1.0071           -0.2463147              -6.7026
        19        0.9774           -0.2232514              -6.0750 (HOMO)
        20        0.0226           -0.2160900              -5.8801 (LUMO)
        21                         -0.2008175              -5.4645
        22                         -0.1858376              -5.0569
        23                         -0.1799301              -4.8961
        24                         -0.1500790              -4.0839
       ...                                ...                  ...
        48                          1.5210766              41.3906
      -------------------------------------------------------------
                  HL-Gap            0.0071615 Eh            0.1949 eV
             Fermi-level           -0.2353409 Eh           -6.4040 eV

 transition dipole moment (au) for excitation:          18          19
     X       Y       Z   
   1.0916  -0.1638  -0.4379  total (au/Debye):    1.188   3.018
 dE (eV)             :    0.628
 oscillator strength :  0.30663E-01

 SCC (total)                   0 d,  0 h,  0 min,  0.038 sec
 SCC setup                      ...        0 min,  0.000 sec (  0.428%)
 Dispersion                     ...        0 min,  0.000 sec (  0.258%)
 classical contributions        ...        0 min,  0.000 sec (  0.098%)
 integral evaluation            ...        0 min,  0.003 sec (  7.756%)
 iterations                     ...        0 min,  0.026 sec ( 67.001%)
 molecular gradient             ...        0 min,  0.006 sec ( 15.179%)
 printout                       ...        0 min,  0.004 sec (  9.206%)

         :::::::::::::::::::::::::::::::::::::::::::::::::::::
         ::                     SUMMARY                     ::
         :::::::::::::::::::::::::::::::::::::::::::::::::::::
         :: total energy             -14.147729064557 Eh    ::
         :: gradient norm              0.018789786231 Eh/a0 ::
         :: HOMO-LUMO gap              0.194873578385 eV    ::
         ::.................................................::
         :: SCC energy               -14.423006941663 Eh    ::
         :: -> isotropic ES            0.090202111920 Eh    ::
         :: -> anisotropic ES          0.002063478666 Eh    ::
         :: -> anisotropic XC         -0.032497337293 Eh    ::
         :: -> dispersion             -0.012569283449 Eh    ::
         :: repulsion energy           0.275228257860 Eh    ::
         :: add. restraining           0.000000000000 Eh    ::
         :: total charge               0.000000000013 e     ::
         :::::::::::::::::::::::::::::::::::::::::::::::::::::


Property printout bound to 'properties.out'

           -------------------------------------------------
          | TOTAL ENERGY              -14.147729064557 Eh   |
          | GRADIENT NORM               0.018789786231 Eh/α |
          | HOMO-LUMO GAP               0.194873578385 eV   |
           -------------------------------------------------

------------------------------------------------------------------------
 * finished run on 2026/04/17 at 12:14:58.587     
------------------------------------------------------------------------
 total:
 * wall-time:     0 d,  0 h,  0 min,  0.051 sec
 *  cpu-time:     0 d,  0 h,  0 min,  0.051 sec
 * ratio c/w:     0.999 speedup
 SCF:
 * wall-time:     0 d,  0 h,  0 min,  0.038 sec
 *  cpu-time:     0 d,  0 h,  0 min,  0.038 sec
 * ratio c/w:     0.999 speedup


-------------------------   --------------------
FINAL SINGLE POINT ENERGY       -14.147729064560
-------------------------   --------------------


-------------
DIPOLE MOMENT
-------------
                                X             Y             Z
Total Dipole Moment    :      0.17700      -0.13700      -0.14900
                        -----------------------------------------
Magnitude (a.u.)       :      0.26888
Magnitude (Debye)      :      0.68345


------------------
CARTESIAN GRADIENT
------------------

   1   B   :    0.002281129   -0.000589350    0.002969891
   2   B   :   -0.006641283    0.000118922    0.002431512
   3   B   :    0.001360684    0.002075710    0.002549010
   4   B   :   -0.000778842   -0.001499603   -0.000293679
   5   B   :    0.002789178   -0.004122916    0.000135961
   6   B   :    0.006084321    0.003183318   -0.001282623
   7   B   :    0.002377987    0.003346092    0.004838661
   8   B   :   -0.005087780   -0.004976556   -0.005880464
   9   B   :    0.002452071    0.001499138    0.002633405
  10   B   :   -0.003468995    0.000490651   -0.002544317
  11   B   :    0.001593369   -0.002117794   -0.001763447
  12   B   :   -0.002961840    0.002592389   -0.003793910

Difference to translation invariance:
           :    0.0000000000   -0.0000000000   -0.0000000000

Difference to rotation invariance:
           :    0.0000000013    0.0000000036    0.0000000029

Norm of the Cartesian gradient     ...    0.0187897862
RMS gradient                       ...    0.0031316310
MAX gradient                       ...    0.0066412826
------------------------------------------------------------------------------
                         ORCA GEOMETRY RELAXATION STEP
------------------------------------------------------------------------------

Reading the OPT-File                    .... done
Getting information on internals        .... done
Copying old internal coords+grads       .... done
Making the new internal coordinates     .... (2022 redundants) done
Validating the new internal coordinates .... (2022 redundants) done
Calculating the B-matrix                .... done
Calculating the G,G- and P matrices     .... done
Transforming gradient to internals      .... done
Projecting the internal gradient        .... done
Number of atoms                         ....  12
Number of internal coordinates          ....  62
Current Energy                          ....   -14.147729065 Eh
Current gradient norm                   ....     0.018789786 Eh/bohr
Maximum allowed component of the step   ....  0.300
Current trust radius                    ....  0.311
Updating the Hessian (BFGS)             .... done
Forming the augmented Hessian           .... done
Diagonalizing the augmented Hessian     .... done
Last element of RFO vector              ....  0.797389869
Lowest eigenvalues of augmented Hessian:
 -0.003998854  0.001762321  0.004883276  0.012732723  0.019486371
Length of the computed step             ....  0.756799803
Warning: the length of the step is outside the trust region - taking restricted step instead
The input lambda is                     ....    -0.000817
   iter:   5  x=   -0.007303  g=  131.051165 f(x)=     0.307672
   iter:  10  x=   -0.012472  g=   11.790631 f(x)=     0.000002
The output lambda is                    ....    -0.012472 (12 iterations)
The final length of the internal step   ....  0.311111111
Converting the step to Cartesian space:
 Initial RMS(Int)=    0.0395111506
Transforming coordinates:
 Iter   0:  RMS(Cart)=    0.0447628141 RMS(Int)=    0.0396945585
 Iter   5:  RMS(Cart)=    0.0000319100 RMS(Int)=    0.0000182111
 Iter  10:  RMS(Cart)=    0.0000007826 RMS(Int)=    0.0000004466
done
Storing new coordinates                 .... done
The predicted energy change is          ....    -0.001652706
Previously predicted energy change      ....    -0.001518798
Actually observed energy change         ....    -0.001396428
Ratio of predicted to observed change   ....     0.919429620
New trust radius                        ....     0.466666667

                                .--------------------.
          ----------------------|Geometry convergence|-------------------------
          Item                value                   Tolerance       Converged
          ---------------------------------------------------------------------
          Energy change      -0.0013964283            0.0000010000      NO
          RMS gradient        0.0018432008            0.0000300000      NO
          MAX gradient        0.0070051801            0.0001000000      NO
          RMS step            0.0395111506            0.0006000000      NO
          MAX step            0.1154096880            0.0010000000      NO
          -------------------------------------------------------------------------
          ........................................................
          Max(Bonds)      0.0254      Max(Angles)    5.71
          Max(Dihed)        6.61      Max(Improp)    0.00
          ---------------------------------------------------------------------

The optimization has not yet converged - more geometry cycles are needed


    ---------------------------------------------------------------------------
                         Redundant Internal Coordinates
                            (Angstroem and degrees)

        Definition                    Value    dE/dq     Step     New-Value
    ----------------------------------------------------------------------------
     1. B(B   5,B   4)                1.6404  0.002887 -0.0006    1.6398   
     2. B(B   5,B   1)                1.5088 -0.003211  0.0010    1.5099   
     3. B(B   6,B   2)                1.5180 -0.004546  0.0201    1.5381   
     4. B(B   6,B   3)                1.4846  0.001136 -0.0048    1.4798   
     5. B(B   7,B   2)                1.5238 -0.007005  0.0153    1.5391   
     6. B(B   8,B   7)                1.5131  0.001883  0.0131    1.5262   
     7. B(B   9,B   0)                1.4774  0.001831 -0.0047    1.4727   
     8. B(B   9,B   5)                1.6237  0.000280 -0.0254    1.5984   
     9. B(B   9,B   4)                1.5773  0.000392 -0.0090    1.5683   
    10. B(B  10,B   8)                1.5013 -0.001180 -0.0047    1.4966   
    11. B(B  10,B   1)                1.5176  0.001138 -0.0196    1.4980   
    12. B(B  11,B   4)                1.5471 -0.002196  0.0052    1.5522   
    13. B(B  11,B   3)                1.5275  0.000445  0.0023    1.5298   
    14. B(B  11,B   2)                2.0106  0.001539  0.0071    2.0177   
    15. A(B   5,B   1,B  10)          134.60 -0.001178    1.86    136.46   
    16. A(B   7,B   2,B  11)          120.81  0.001236    0.57    121.38   
    17. A(B   6,B   2,B   7)          158.49 -0.001620   -1.26    157.23   
    18. A(B   6,B   2,B  11)           78.82 -0.000028   -0.96     77.86   
    19. A(B   6,B   3,B  11)           97.93 -0.001259   -0.14     97.79   
    20. A(B   9,B   4,B  11)          147.32 -0.000971    3.22    150.54   
    21. A(B   5,B   4,B   9)           60.57 -0.000551   -1.34     59.24   
    22. A(B   5,B   4,B  11)          146.93  0.001630   -1.59    145.33   
    23. A(B   1,B   5,B   4)          136.71  0.000655   -0.91    135.80   
    24. A(B   4,B   5,B   9)           57.79 -0.000429    0.38     58.17   
    25. A(B   1,B   5,B   9)          138.49 -0.001206    2.81    141.29   
    26. A(B   2,B   6,B   3)          101.71  0.001803    0.52    102.24   
    27. L(B   2,B   7,B   8,B  11, 2) 188.48  0.001277    1.25    189.73   
    28. L(B   2,B   7,B   8,B  11, 1) 162.79  0.002144   -5.71    157.08   
    29. A(B   7,B   8,B  10)          127.38 -0.001775    5.30    132.68   
    30. A(B   0,B   9,B   4)          148.77 -0.002096    1.85    150.62   
    31. A(B   4,B   9,B   5)           61.63  0.000980    0.95     62.59   
    32. A(B   0,B   9,B   5)          120.24 -0.001319    0.24    120.48   
    33. A(B   1,B  10,B   8)          129.39  0.000280   -2.51    126.87   
    34. A(B   2,B  11,B   4)          106.24 -0.003688    1.35    107.59   
    35. A(B   2,B  11,B   3)           81.08 -0.000346    0.61     81.68   
    36. D(B   9,B   4,B   3,B   6)    -85.33  0.002961   -1.67    -87.00   
    37. D(B   5,B   4,B   3,B   6)     57.03 -0.002098    1.61     58.64   
    38. D(B   4,B   5,B   1,B  10)    -18.31  0.000635   -6.61    -24.92   
    39. D(B   1,B   5,B   4,B   9)    128.46 -0.002102    4.26    132.71   
    40. D(B   9,B   5,B   1,B  10)     73.21 -0.000723   -3.96     69.25   
    41. D(B   9,B   5,B   4,B  11)   -154.78  0.000757   -1.97   -156.75   
    42. D(B   1,B   5,B   4,B  11)    -26.32 -0.001345    2.29    -24.03   
    43. D(B   2,B   6,B   3,B  11)     -6.38  0.001107    0.91     -5.47   
    44. D(B   3,B   6,B   2,B  11)      4.89 -0.000853   -0.56      4.33   
    45. D(B   3,B   6,B   2,B   7)   -152.36  0.000661   -1.42   -153.78   
    46. D(B  10,B   8,B   2,B  11)      0.12  0.000934   -2.05     -1.93   
    47. D(B  10,B   8,B   2,B   6)    129.79  0.002169   -6.35    123.44   
    48. D(B   5,B   9,B   4,B  11)    154.49  0.001149   -0.46    154.03   
    49. D(B   0,B   9,B   4,B  11)     52.16  0.001765   -1.76     50.40   
    50. D(B   0,B   9,B   4,B   5)   -102.33  0.000615   -1.30   -103.63   
    51. D(B   4,B   9,B   5,B   1)   -125.89 -0.000537    1.13   -124.77   
    52. D(B   0,B   9,B   5,B   4)    144.11 -0.002043    1.77    145.88   
    53. D(B   0,B   9,B   5,B   1)     18.22 -0.002580    2.90     21.12   
    54. D(B   1,B  10,B   8,B   7)     10.52  0.000893    1.19     11.71   
    55. D(B   8,B  10,B   1,B   5)      1.63 -0.002209    4.63      6.26   
    56. D(B   2,B  11,B   4,B   5)     53.22  0.001370    1.90     55.12   
    57. D(B   2,B  11,B   3,B   6)      4.77 -0.001018   -0.63      4.14   
    58. D(B   4,B  11,B   2,B   7)    -23.42 -0.000277   -1.38    -24.80   
    59. D(B   4,B  11,B   2,B   6)    166.08  0.001139   -0.96    165.12   
    60. D(B   3,B  11,B   2,B   7)    165.79 -0.000589    0.17    165.95   
    61. D(B   2,B  11,B   4,B   9)    -83.36  0.001165    0.79    -82.57   
    62. D(B   3,B  11,B   2,B   6)     -4.71  0.000827    0.58     -4.12   
    ----------------------------------------------------------------------------

Geometry step timings:
Preparation and reading OPT file:      0.000 s ( 1.007 %)
Internal coordinates            :      0.000 s ( 2.386 %)
B/P matrices and projection     :      0.000 s (15.511 %)
Hessian update/contruction      :      0.000 s (18.121 %)
Making the step                 :      0.001 s (34.526 %)
Converting the step to Cartesian:      0.000 s ( 3.654 %)
Storing new data                :      0.000 s ( 3.132 %)
Checking convergence            :      0.000 s ( 2.163 %)
Final printing                  :      0.001 s (19.463 %)
Total time                      :      0.003 s

Time for energy+gradient        :      0.071 s
Time for complete geometry iter :      0.075 s




    ----------------------------------------------------------------------------
                                  WARNING !!!
       The optimization did not converge but reached the maximum number of
       optimization cycles.
       Please check your results very carefully.
    ----------------------------------------------------------------------------



--------------------------------
SUGGESTED CITATIONS FOR THIS RUN
--------------------------------

Below you find a list of papers that are relevant to this ORCA run
We neither can nor want to force you to cite these papers, but we appreciate if you do
You receive ORCA, which is the product of decades of hard work by many enthusiastic individuals, for free
The only thing we kindly ask in return is that you cite our papers,
We deeply appreciate it, if you show your appreciation for ORCA by not just citing the generic ORCA reference.

Please note that relegating all ORCA citations to the supporting information does *not* help us.
SI sections are not indexed - citations you put there will not count into any citation statistics
But we need these citations in order to attract the funding resources that allow us to do what we are doing

Therefore, if you are a happy ORCA user, please consider citing a few of the papers listed below in the main body of your paper

In addition to the list printed below, the program has created the file random_d2.10_005_m3.bibtex that contains the list in bibtex format
You can import this file easily into all common literature databanks and citation aid programs

It goes without saying that in many instances, there are alternative algorithms to achieve similar
results as the ones you have gotten from ORCA. It is, of course, also the case that in some instances
ORCA just re-implements algorithms worked out by others. We are fully aware of that and we are also
fully appreciative of our colleagues work. Hence this citation list should not be read as indicating
that the listed papers, which are focused on our own work, are the only ones worth citing. It simply
meant to make it easier for users to cite ORCA specific papers. It is not a substitute for doing your
own literature research and citing the relevant literature in a scientifically appropriate manner.

List of essential papers. We consider these as the minimum necessary citations

  1. Bannwarth, C.; Ehlert, S.; Grimme, S.
     GFN2-xTB—An Accurate and Broadly Parametrized Self-Consistent Tight-Binding Quantum Chemical Method with Multipole Electrostatics and Density-Dependent Dispersion Contributions
     J. Chem. Theory Comput. 2019 15(3), 1652-1671
     doi.org/10.1021/acs.jctc.8b01176
  2. Neese, F.
     Software update: the ORCA program system, version 6.0
     WIRES Comput. Molec. Sci. 2025 15(1), e70019
     doi.org/10.1002/wcms.70019

List of papers to cite with high priority. The work reported in these papers was absolutely
necessary for this run to complete.
Our perspective: the developers of density functionals and basis sets usually get cited in chemistry papers
Good! But without the algorithms to do something with them, the functionals or basis sets would not do anything.
Hence, in our opinion, the algorithm design and method developments papers are equally worthy of getting cited

  1. Bannwarth, C.; Caldeweyher, E.; Ehlert, S.; Hansen, A.; Pracht, P.; Seibert, J.; Spicher, S.; Grimme, S.
     Extended tight-binding quantum chemistry methods
     WIRES Comput. Molec. Sci. 2020 11(2), e1493
     doi.org/10.1002/wcms.1493

List of suggested additional citations. These are papers that are important in the 'surrounding' of 
of this run, or papers that preceded the highly important papers. If you like your results we are grateful for a citation.

  1. Neese, F.
     The ORCA program system
     WIRES Comput. Molec. Sci. 2012 2(1), 73-78
     doi.org/10.1002/wcms.81
  2. Neese, F.
     Software update: the ORCA program system, version 4.0
     WIRES Comput. Molec. Sci. 2018 8(1), 1-6
     doi.org/10.1002/wcms.1327
  3. Neese, F.; Wennmohs, F.; Becker, U.; Riplinger, C.
     The ORCA quantum chemistry program package
     J. Chem. Phys. 2020 152(22), 224108
     doi.org/10.1063/5.0004608
  4. Neese, F.
     Software update: The ORCA program system—Version 5.0
     WIRES Comput. Molec. Sci. 2022 12(1), e1606
     doi.org/10.1002/wcms.1606

List of optional additional citations

  1. Neese, F.
     Approximate second-order SCF convergence for spin unrestricted wavefunctions
     Chem. Phys. Lett. 2000 325(1-3), 93-98
     doi.org/10.1016/s0009-2614(00)00662-x

Timings for individual modules:

Sum of individual times          ...        6.486 sec (=   0.108 min)
Geometry relaxation              ...        0.757 sec (=   0.013 min)  11.7 %
XTB module                       ...        5.729 sec (=   0.095 min)  88.3 %
                             ****ORCA TERMINATED NORMALLY****
TOTAL RUN TIME: 0 days 0 hours 0 minutes 6 seconds 974 msec
