
                                 *****************
                                 * O   R   C   A *
                                 *****************

                                            #,                                       
                                            ###                                      
                                            ####                                     
                                            #####                                    
                                            ######                                   
                                           ########,                                 
                                     ,,################,,,,,                         
                               ,,#################################,,                 
                          ,,##########################################,,             
                       ,#########################################, ''#####,          
                    ,#############################################,,   '####,        
                  ,##################################################,,,,####,       
                ,###########''''           ''''###############################       
              ,#####''   ,,,,##########,,,,          '''####'''          '####       
            ,##' ,,,,###########################,,,                        '##       
           ' ,,###''''                  '''############,,,                           
         ,,##''                                '''############,,,,        ,,,,,,###''
      ,#''                                            '''#######################'''  
     '                                                          ''''####''''         
             ,#######,   #######,   ,#######,      ##                                
            ,#'     '#,  ##    ##  ,#'     '#,    #''#        ,####,    ,#,          
            ##       ##  ##   ,#'  ##            #'  '#       #'       ,# #          
            ##       ##  #######   ##           ,######,      #####,      #          
            '#,     ,#'  ##    ##  '#,     ,#' ,#      #,     #,   #      #          
             '#######'   ##     ##  '#######'  #'      '#     '####' #    #          



                #########################################################
                #                        -***-                          #
                #          Department of theory and spectroscopy        #
                #                                                       #
                #                      Frank Neese                      #
                #                                                       #
                #     Directorship, Architecture, Infrastructure        #
                #                    SHARK, DRIVERS                     #
                #        Core code/Algorithms in most modules           #
                #                                                       #
                #        Max Planck Institute fuer Kohlenforschung      #
                #                Kaiser Wilhelm Platz 1                 #
                #                 D-45470 Muelheim/Ruhr                 #
                #                      Germany                          #
                #                                                       #
                #                  All rights reserved                  #
                #                        -***-                          #
                #########################################################


                         Program Version 6.1.1  -  RELEASE   -
                                (GIT: $487d211c$)
                          ($2025-11-21 10:33:24 +0100$)
                                                                         
                                  - NO-DMRG VERSION -                    
                                                                         


 With contributions from (in alphabetic order):
[Max-Planck-Institut fuer Kohlenforschung]                               
  Daniel Aravena         : Magnetic Suceptibility                        
  Michael Atanasov       : Ab Initio Ligand Field Theory (pilot matlab implementation)
  Alexander A. Auer      : GIAO ZORA, VPT2 properties, NMR spectrum      
  Ute Becker             : All parallelization in ORCA, NUMFREQ, NUMCALC 
  Giovanni Bistoni       : ED, misc. LED, open-shell LED, HFLD           
  Dmytro Bykov           : pre 5.0 version of the SCF Hessian            
  Marcos Casanova-Páez   : Triplet and SCS-CIS(D). UHF-(DLPNO)-IP/EA/STEOM-CCSD. UHF-CVS-IP/STEOM-CCSD   
  Vijay G. Chilkuri      : MRCI spin determinant printing, contributions to CSF-ICE 
  Pauline Colinet        : FMM embedding                                 
  Dipayan Datta          : RHF DLPNO-CCSD density                        
  Achintya Kumar Dutta   : EOM-CC, STEOM-CC                              
  Nicolas Foglia         : Exact transition moments, OPA infrastructure, MCD improvements    
  Dmitry Ganyushin       : Spin-Orbit,Spin-Spin,Magnetic field MRCI      
  Miquel Garcia-Rates    : C-PCM and meta-GGA Hessian, CCSD/C-PCM, Gaussian charge scheme 
  Tiago L. C. Gouveia    : GS-ROHF, GS-ROCIS                             
  Yang Guo               : DLPNO-NEVPT2, F12-NEVPT2, CIM, IAO-localization        
  Andreas Hansen         : Spin unrestricted coupled pair/coupled cluster methods 
  Ingolf Harden          : AUTO-CI MPn and infrastructure                
  Benjamin Helmich-Paris : MC-RPA, TRAH-(SCF,CASSCF), AVAS, COSX integrals, SCF dyn. polar., MC-PDFT, srDFT 
  Lee Huntington         : MR-EOM, pCC                                   
  Robert Izsak           : Overlap fitted RIJCOSX, COSX-SCS-MP3, EOM     
  Riya Kayal             : Wick's Theorem for AUTO-CI, AUTO-CI UHF-CCSDT 
  Emily Kempfer          : AUTO-CI RHF CISDT and CCSDT, approximate NEVPT4
  Christian Kollmar      : KDIIS, OOCD, Brueckner-CCSD(T), CCSD density, CASPT2, CASPT2-K, improved NEVPT2 
  Axel Koslowski         : Symmetry handling                             
  Simone Kossmann        : meta-GGA functionals, TD-DFT gradient, OOMP2, (MP2 Hessian; deprecated post 5.0) 
  Lucas Lang             : DCDCAS, Hyperfine gauge corrections, ICE-SOC+SSC
  Marvin Lechner         : AUTO-CI (C++ implementation), FIC-MRCC        
  Spencer Leger          : CASSCF response                               
  Dagmar Lenk            : GEPOL surface, SMD, ORCA-2-JSON               
  Dimitrios Liakos       : Extrapolation schemes; Compound Job, Property file
  Dimitrios Manganas     : Further ROCIS development; embedding schemes. LFT, Crystal Embedding 
  Dimitrios Pantazis     : SARC Basis sets                               
  Anastasios Papadopoulos: AUTO-CI, single reference methods and gradients 
  Taras Petrenko         : pre 6.0 DFT Hessian and TD-DFT gradient,  ECA, NRVS 
  Petra Pikulova         : Analytic Raman intensities                    
  Peter Pinski           : DLPNO-MP2, DLPNO-MP2 Gradient                 
  Shashank Vittal Rao    : ES-AILFT, MagRelax                            
  Christoph Reimann      : Effective Core Potentials                     
  Marius Retegan         : Local ZFS, SOC                                
  Christoph Riplinger    : Optimizer, TS searches, QM/MM, DLPNO-CCSD(T), (RO)-DLPNO pert. Triples 
  Michael Roemelt        : Original ROCIS implementation, recursive CI coupling coefficients
  Masaaki Saitow         : Open-shell DLPNO-CCSD energy and density      
  Barbara Sandhoefer     : DKH picture change effects                    
  Yorick L. A. Schmerwitz: GMF and freeze-and-release deltaSCF, NEB S-IDPP initial path                    
  Kantharuban Sivalingam : CASSCF convergence/infrastructure, NEVPT2, NEVPT3, NEVPT4(SD), FIC-MRCI and CEPA variants
  Bernardo de Souza      : ESD, SOC TD-DFT                               
  Georgi L. Stoychev     : AutoAux, RI-MP2 NMR, DLPNO-MP2 response, X2C  
  Van Anh Tran           : RI-MP2 g-tensors                              
  Willem Van den Heuvel  : Paramagnetic NMR                              
  Zikuan Wang            : NOTCH, Electric field optimization            
  Frank Wennmohs         : Technical directorship and infrastructure     
  Hang Xu                : AUTO-CI-Response properties                   
                                                                         
[FACCTs GmbH]                                                            
  Markus Bursch, Nicolas Foglia, Miquel Garcia-Rates, Ingolf Harden, Hagen Neugebauer, Anastasios Papadopoulos, 
  Christoph Riplinger, Bernardo de Souza, Georgi L. Stoychev                                                    
                                                                 
  APM, various basis sets, CI-OPT, improved COSX, DLPNO-Multilevel,           
  DOCKER, DRACO, updates on ESD, Fragmentator, GOAT, IRC, LR-CPCM, L-BFGS, MBIS, meta-GGA TD-DFT gradient, ML-optimized integration grids, 
  MM, NACMEs, nearIR, NEB, NEB-TS, NL-DFT gradient (VV10), 2- and 3-layer-ONIOM, interface openCOSMO-RS, QMMM,   
  Crystal-QMMM, RESP, rigid body optimization, SF, symmetry and pop. for TD-DFT, various functionals, SOLVATOR                                   
                                                                         
[Other institutions]                                                     
  V. Asgeirsson          : NEB                                           
  Christoph Bannwarth    : sTDA-DFT, sTD-DFT, PBEh-3c, B97-3c, D3        
  Giovanni Bistoni       : ETS/NOCV, ADLD/ADEX, COVALED                  
  Martin Brehm           : Molecular dynamics                            
  Ronald Cardenas        : ETS/NOCV                                      
  Martina Colucci        : COVALED                                       
  Sebastian Ehlert       : rSCAN, r2SCAN, r2SCAN-3c, D4, dhf basis sets  
  Marvin Friede          : D4 for Fr, Ra, Ac-Lr                          
  Lars Goerigk           : TD-DFT with DH, B97 family of functionals     
  Stefan Grimme          : VdW corrections, initial TS optimization, DFT functionals, gCP, sTDA/sTD-DF 
  Waldemar Hujo          : DFT-NL                                        
  H. Jonsson             : NEB                                           
  Holger Kruse           : gCP                                           
  Marcel Mueller         : wB97X-3c, vDZP basis set                      
  Hagen Neugebauer       : wr2SCAN, Native XTB                           
  Gianluca Regni         : ADLD/ADEX                                     
  Tobias Risthaus        : pre 6.0 range-separated hybrid DFT and stability analysis
  Lukas Wittmann         : regularized MP2, r2SCAN double-hybrids, wr2SCAN        
                                                                         
We gratefully acknowledge several colleagues who have allowed us to      
interface, adapt or use parts of their codes:                            
  Ed Valeev, F. Pavosevic, A. Kumar             : LibInt (2-el integral package), F12 methods 
  Garnet Chan, S. Sharma, J. Yang, R. Olivares  : DMRG                   
  Ulf Ekstrom                                   : XCFun DFT Library      
  Mihaly Kallay                                 : mrcc  (arbitrary order and MRCC methods)
  Frank Weinhold                                : gennbo (NPA and NBO analysis)           
  Simon Mueller                                 : openCOSMO-RS                            
  Christopher J. Cramer and Donald G. Truhlar   : smd solvation model                     
  S Lehtola, MJT Oliveira, MAL Marques          : LibXC Library                           
  Liviu Ungur et al                             : ANISO software                          


 Your calculation uses the libint2 library for the computation of 2-el integrals
 For citations please refer to: http://libint.valeyev.net

 Your ORCA version has been built with support for libXC version: 7.0.0
 For citations please refer to: https://libxc.gitlab.io

 This ORCA versions uses:
   CBLAS   interface :  Fast vector & matrix operations
   LAPACKE interface :  Fast linear algebra routines
   SCALAPACK package :  Parallel linear algebra routines
   Shared memory     :  Shared parallel matrices
   BLAS/LAPACK       :  OpenBLAS 0.3.29  USE64BITINT DYNAMIC_ARCH NO_AFFINITY Zen SINGLE_THREADED
        Core in use  :  Zen
   Copyright (c) 2011-2014, The OpenBLAS Project


  ***********************************
  * Starting time: Fri Apr 17 12:14:53 2026
  * Host name:     vmi3233575
  * Process ID:    340386
  * Working dir.:  /root/orca_b12_vps_pack/jobs/01_xtb/mult_3
  ***********************************

NOTE: MaxCore=500 MB was set to SCF,MP2,MDCI,CIPSI,MRCI,RASCI and CIS
      => If you want to overwrite this, your respective input block should be placed after the MaxCore statement


***************************************
The coordinates will be read from file: ../../../starts/random_d2.10_006.xyz
***************************************


Your calculation utilizes the semiempirical GFN2-xTB method
Please cite in your paper:
Bannwarth, C.; Ehlert S.; Grimme, S. J. Chem. Theory Comput. 2019, 15, 1652.
   

================================================================================

================================================================================
                                        WARNINGS
                       Please study these warnings very carefully!
================================================================================


WARNING: Geometry Optimization
  ===> : Switching off AutoStart
         For restart on a previous wavefunction, please use MOREAD

WARNING: Found dipole moment calculation with XTB calculation
  ===> : Switching off dipole moment calculation

Environment variable XTBEXE for xtb has been set!

================================================================================
                                       INPUT FILE
================================================================================
NAME = random_d2.10_006_m3.inp
|  1> ! GFN2-xTB TightSCF TightOpt
|  2> 
|  3> %pal
|  4>   nprocs 1
|  5> end
|  6> 
|  7> %maxcore 500
|  8> 
|  9> * xyzfile 0 3 ../../../starts/random_d2.10_006.xyz
| 10> 
| 11>                          ****END OF INPUT****
================================================================================

                       *****************************
                       * Geometry Optimization Run *
                       *****************************

Geometry optimization settings:
Update method            Update   .... BFGS
Choice of coordinates    CoordSys .... (2022) Redundant Internals
Initial Hessian          InHess   .... Almloef's Model
Max. no of cycles        MaxIter  .... 50

Convergence Tolerances:
Energy Change            TolE     ....  1.0000e-06 Eh
Max. Gradient            TolMAXG  ....  1.0000e-04 Eh/bohr
RMS Gradient             TolRMSG  ....  3.0000e-05 Eh/bohr
Max. Displacement        TolMAXD  ....  1.0000e-03 bohr
RMS Displacement         TolRMSD  ....  6.0000e-04 bohr
Strict Convergence                .... False

------------------------------------------------------------------------------
                        ORCA OPTIMIZATION COORDINATE SETUP
------------------------------------------------------------------------------

The optimization will be done in redundant internal coordinates (2022)
Making redundant internal coordinates   ...  (2022 redundants) done
Evaluating the initial hessian          ...  (Almloef) done
Evaluating the coordinates              ...  done
Calculating the B-matrix                .... done
Calculating the G-matrix                .... done
The number of degrees of freedom        ....   75

    -----------------------------------------------------------------
                    Redundant Internal Coordinates


    -----------------------------------------------------------------
         Definition                    Initial Value    Approx d2E/dq
    -----------------------------------------------------------------
      1. B(B   2,B   0)                  1.3607         0.933489   
      2. B(B   2,B   1)                  2.2924         0.030450   
      3. B(B   4,B   2)                  1.5446         0.475044   
      4. B(B   4,B   3)                  2.2883         0.030915   
      5. B(B   6,B   5)                  2.2217         0.039494   
      6. B(B   6,B   1)                  3.1596         0.010000   
      7. B(B   8,B   6)                  1.1764         1.837369   
      8. B(B   9,B   7)                  2.1787         0.046251   
      9. B(B   9,B   8)                  2.7261         0.010000   
     10. B(B   9,B   6)                  2.6273         0.010000   
     11. B(B  10,B   4)                  1.6346         0.341270   
     12. B(B  10,B   2)                  1.9274         0.116414   
     13. B(B  11,B   6)                  2.7938         0.010000   
     14. B(B  11,B   1)                  2.6005         0.010000   
     15. A(B   2,B   1,B  11)          142.6152         0.160230   
     16. A(B   6,B   1,B  11)           57.0400         0.123637   
     17. A(B   2,B   1,B   6)           86.9641         0.133750   
     18. A(B   4,B   2,B  10)           54.8413         0.321162   
     19. A(B   1,B   2,B   4)          136.0970         0.260383   
     20. A(B   0,B   2,B   4)          116.7863         0.460898   
     21. A(B   0,B   2,B   1)          107.0827         0.288696   
     22. A(B   0,B   2,B  10)           87.3129         0.359516   
     23. A(B   1,B   2,B  10)          129.0995         0.213663   
     24. A(B   2,B   4,B   3)          156.1905         0.260972   
     25. A(B   3,B   4,B  10)          128.0114         0.248568   
     26. A(B   2,B   4,B  10)           74.5770         0.385150   
     27. A(B   1,B   6,B   8)          166.3120         0.202191   
     28. A(B   5,B   6,B   9)          153.4290         0.162886   
     29. A(B   8,B   6,B  11)          134.3860         0.242428   
     30. A(B   9,B   6,B  11)           78.0431         0.134917   
     31. A(B   8,B   6,B   9)           82.0494         0.265205   
     32. A(B   1,B   6,B   5)           68.7098         0.136463   
     33. A(B   5,B   6,B  11)           77.3028         0.153335   
     34. A(B   5,B   6,B   8)          122.8503         0.335885   
     35. A(B   1,B   6,B  11)           51.3537         0.118496   
     36. A(B   1,B   6,B   9)           88.1141         0.122875   
     37. A(B   6,B   8,B   9)           72.6492         0.251310   
     38. A(B   7,B   9,B   8)           77.5382         0.159536   
     39. A(B   6,B   9,B   7)           83.8615         0.165575   
     40. A(B   6,B   9,B   8)           25.3014         0.137575   
     41. A(B   2,B  10,B   4)           50.5818         0.304417   
     42. A(B   1,B  11,B   6)           71.6062         0.135950   
     43. D(B   4,B   2,B   1,B   6)    -29.0255         0.010000   
     44. D(B   0,B   2,B   1,B  11)    168.0885         0.010000   
     45. D(B   0,B   2,B   1,B   6)    153.2651         0.010000   
     46. D(B   4,B   2,B   1,B  11)    -14.2021         0.010000   
     47. D(B  10,B   2,B   1,B  11)    -91.1605         0.010000   
     48. D(B  10,B   4,B   2,B   1)   -112.3700         0.011493   
     49. D(B  10,B   4,B   2,B   0)     65.1771         0.011493   
     50. D(B   3,B   4,B   2,B   1)     50.8093         0.011493   
     51. D(B   3,B   4,B   2,B  10)    163.1794         0.011493   
     52. D(B   3,B   4,B   2,B   0)   -131.6435         0.011493   
     53. D(B   5,B   6,B   1,B   2)   -100.1213         0.010000   
     54. D(B   8,B   6,B   1,B  11)   -120.1100         0.010000   
     55. D(B  11,B   6,B   1,B   2)    169.3310         0.010000   
     56. D(B   5,B   6,B   1,B  11)     90.5477         0.010000   
     57. D(B   8,B   6,B   1,B   2)     49.2210         0.010000   
     58. D(B   9,B   6,B   1,B   2)     93.1632         0.010000   
     59. D(B   9,B   8,B   6,B   5)   -169.9900         0.217289   
     60. D(B   9,B   8,B   6,B   1)     44.4501         0.217289   
     61. D(B   9,B   8,B   6,B  11)    -64.5697         0.217289   
     62. D(B   7,B   9,B   8,B   6)   -102.1954         0.010000   
     63. D(B   7,B   9,B   6,B   1)    -96.7351         0.010000   
     64. D(B   7,B   9,B   6,B  11)   -147.5570         0.010000   
     65. D(B   7,B   9,B   6,B   8)     73.7211         0.010000   
     66. D(B   8,B   9,B   6,B   5)    160.9464         0.010000   
     67. D(B   8,B   9,B   6,B   1)   -170.4562         0.010000   
     68. D(B   8,B   9,B   6,B  11)    138.7219         0.010000   
     69. D(B   2,B  10,B   4,B   3)   -171.4733         0.010000   
     70. D(B   4,B  10,B   2,B   1)    124.2791         0.010000   
     71. D(B   4,B  10,B   2,B   0)   -125.7955         0.010000   
     72. D(B   1,B  11,B   6,B   8)    163.3550         0.010000   
     73. D(B   6,B  11,B   1,B   2)    -17.7274         0.010000   
     74. D(B   1,B  11,B   6,B   9)     97.2537         0.010000   
     75. D(B   1,B  11,B   6,B   5)    -72.7590         0.010000   
    -----------------------------------------------------------------

Number of atoms                         .... 12
Number of degrees of freedom            .... 75


         *************************************************************
         *                GEOMETRY OPTIMIZATION CYCLE   1            *
         *************************************************************
---------------------------------
CARTESIAN COORDINATES (ANGSTROEM)
---------------------------------
  B    -2.754709   -0.889580   -1.546343
  B    -1.629852    1.513926   -0.168918
  B    -1.519697   -0.597206   -1.055646
  B     1.294743   -3.041723   -0.616513
  B    -0.423070   -1.667893   -1.247476
  B    -1.236902    0.551768    2.787592
  B     0.725660    0.648748    1.750923
  B     2.550517   -0.428311   -0.685233
  B     1.719802    0.237775    2.226993
  B     2.407237    1.637733   -0.008859
  B    -0.809464   -1.166503   -2.754556
  B    -0.324263    3.201266    1.318036

----------------------------
CARTESIAN COORDINATES (A.U.)
----------------------------
  NO LB    ZA    FRAG    MASS        X           Y           Z
   0 B   5.0000    0    10.810   -5.205646   -1.681063   -2.922164
   1 B   5.0000    0    10.810   -3.079975    2.860906   -0.319210
   2 B   5.0000    0    10.810   -2.871811   -1.128555   -1.994881
   3 B   5.0000    0    10.810    2.446709   -5.748023   -1.165040
   4 B   5.0000    0    10.810   -0.799487   -3.151861   -2.357388
   5 B   5.0000    0    10.810   -2.337406    1.042690    5.267785
   6 B   5.0000    0    10.810    1.371299    1.225956    3.308765
   7 B   5.0000    0    10.810    4.819778   -0.809391   -1.294903
   8 B   5.0000    0    10.810    3.249956    0.449329    4.208407
   9 B   5.0000    0    10.810    4.549018    3.094867   -0.016741
  10 B   5.0000    0    10.810   -1.529666   -2.204371   -5.205356
  11 B   5.0000    0    10.810   -0.612768    6.049515    2.490727

      -----------------------------------------------------------      
     |                   =====================                   |     
     |                           x T B                           |     
     |                   =====================                   |     
     |                         S. Grimme                         |     
     |          Mulliken Center for Theoretical Chemistry        |     
     |                    University of Bonn                     |     
      -----------------------------------------------------------      

   * xtb version 6.6.1 (unknown) compiled by 'builduser@buildhost' on 2023-08-07

   xtb is free software: you can redistribute it and/or modify it under
   the terms of the GNU Lesser General Public License as published by
   the Free Software Foundation, either version 3 of the License, or
   (at your option) any later version.
   
   xtb is distributed in the hope that it will be useful,
   but WITHOUT ANY WARRANTY; without even the implied warranty of
   MERCHANTABILITY or FITNESS FOR A PARTICULAR PURPOSE.  See the
   GNU Lesser General Public License for more details.
   
   Cite this work as:
   * C. Bannwarth, E. Caldeweyher, S. Ehlert, A. Hansen, P. Pracht,
     J. Seibert, S. Spicher, S. Grimme, WIREs Comput. Mol. Sci., 2020, 11,
     e01493. DOI: 10.1002/wcms.1493
   
   for GFN2-xTB:
   * C. Bannwarth, S. Ehlert and S. Grimme., J. Chem. Theory Comput., 2019,
     15, 1652-1671. DOI: 10.1021/acs.jctc.8b01176
   for GFN1-xTB:
   * S. Grimme, C. Bannwarth, P. Shushkov, J. Chem. Theory Comput., 2017,
     13, 1989-2009. DOI: 10.1021/acs.jctc.7b00118
   for GFN0-xTB:
   * P. Pracht, E. Caldeweyher, S. Ehlert, S. Grimme, ChemRxiv, 2019, preprint.
     DOI: 10.26434/chemrxiv.8326202.v1
   for GFN-FF:
   * S. Spicher and S. Grimme, Angew. Chem. Int. Ed., 2020, 59, 15665-15673.
     DOI: 10.1002/anie.202004239
   
   for ALPB and GBSA implicit solvation:
   * S. Ehlert, M. Stahn, S. Spicher, S. Grimme, J. Chem. Theory Comput.,
     2021, 17, 4250-4261. DOI: 10.1021/acs.jctc.1c00471
   
   for DFT-D4:
   * E. Caldeweyher, C. Bannwarth and S. Grimme, J. Chem. Phys., 2017,
     147, 034112. DOI: 10.1063/1.4993215
   * E. Caldeweyher, S. Ehlert, A. Hansen, H. Neugebauer, S. Spicher,
     C. Bannwarth and S. Grimme, J. Chem. Phys., 2019, 150, 154122.
     DOI: 10.1063/1.5090222
   * E. Caldeweyher, J.-M. Mewes, S. Ehlert and S. Grimme, Phys. Chem. Chem. Phys.
     2020, 22, 8499-8512. DOI: 10.1039/D0CP00502A
   
   for sTDA-xTB:
   * S. Grimme and C. Bannwarth, J. Chem. Phys., 2016, 145, 054103.
     DOI: 10.1063/1.4959605
   
   in the mass-spec context:
   * V. Asgeirsson, C. Bauer and S. Grimme, Chem. Sci., 2017, 8, 4879.
     DOI: 10.1039/c7sc00601b
   * J. Koopman and S. Grimme, ACS Omega 2019, 4, 12, 15120-15133.
     DOI: 10.1021/acsomega.9b02011
   
   for metadynamics refer to:
   * S. Grimme, J. Chem. Theory Comput., 2019, 155, 2847-2862
     DOI: 10.1021/acs.jctc.9b00143
   
   for SPH calculations refer to:
   * S. Spicher and S. Grimme, J. Chem. Theory Comput., 2021, 17, 1701-1714
     DOI: 10.1021/acs.jctc.0c01306
   
   with help from (in alphabetical order)
   P. Atkinson, C. Bannwarth, F. Bohle, G. Brandenburg, E. Caldeweyher
   M. Checinski, S. Dohm, S. Ehlert, S. Ehrlich, I. Gerasimov, C. Hölzer
   A. Katbashev, J. Koopman, C. Lavigne, S. Lehtola, F. März, M. Müller,
   F. Musil, H. Neugebauer, J. Pisarek, C. Plett, P. Pracht, F. Pultar,
   J. Seibert, P. Shushkov, S. Spicher, M. Stahn, M. Steiner, T. Strunk,
   J. Stückrath, T. Rose, and J. Unsleber
   
 * started run on 2026/04/17 at 12:14:53.825     

           -------------------------------------------------
          |                Calculation Setup                |
           -------------------------------------------------

          program call               : /usr/bin/xtb random_d2.10_006_m3_XTB.xyz --grad -c 0 -u 2 -P 1 --namespace random_d2.10_006_m3 --input random_d2.10_006_m3_XTB.input.tmp --acc 0.200000
          calculation namespace      : random_d2.10_006_m3
          coordinate file            : random_d2.10_006_m3_XTB.xyz
          omp threads                :                     1

   ID    Z sym.   atoms
    1    5 B      1-12

molecular fragmentation (1/2 indicates fragments):
121212222212
# atoms in fragment 1/2:     4     8
 fragment masses (1/2) :       43.24       86.49
CMA distance (Bohr)    :   6.820
constraining FC (au)   :  0.0500

           -------------------------------------------------
          |                 G F N 2 - x T B                 |
           -------------------------------------------------

        Reference                      10.1021/acs.jctc.8b01176
      * Hamiltonian:
        H0-scaling (s, p, d)           1.850000    2.230000    2.230000
        zeta-weighting                 0.500000
      * Dispersion:
        s8                             2.700000
        a1                             0.520000
        a2                             5.000000
        s9                             5.000000
      * Repulsion:
        kExp                           1.500000    1.000000
        rExp                           1.000000
      * Coulomb:
        alpha                          2.000000
        third order                    shell-resolved
        anisotropic                    true
        a3                             3.000000
        a5                             4.000000
        cn-shift                       1.200000
        cn-exp                         4.000000
        max-rad                        5.000000


          ...................................................
          :                      SETUP                      :
          :.................................................:
          :  # basis functions                  48          :
          :  # atomic orbitals                  48          :
          :  # shells                           24          :
          :  # electrons                        36          :
          :  max. iterations                   250          :
          :  Hamiltonian                  GFN2-xTB          :
          :  restarted?                      false          :
          :  GBSA solvation                  false          :
          :  PC potential                    false          :
          :  electronic temp.          300.0000000     K    :
          :  accuracy                    0.2000000          :
          :  -> integral cutoff          0.3198970E+02      :
          :  -> integral neglect         0.2000000E-08      :
          :  -> SCF convergence          0.2000000E-06 Eh   :
          :  -> wf. convergence          0.2000000E-04 e    :
          :  Broyden damping             0.4000000          :
          ...................................................

 iter      E             dE          RMSdq      gap      omega  full diag
   1    -12.1323707 -0.121324E+02  0.203E+01    0.19       0.0  T
   2     13.5783197  0.257107E+02  0.276E+01    0.37       1.0  T
   3     25.1474314  0.115691E+02  0.269E+01    0.03       1.0  T
   4      9.9346042 -0.152128E+02  0.250E+01    0.35       1.0  T
   5     -1.1682894 -0.111029E+02  0.186E+01    0.47       1.0  T
   6      0.3578463  0.152614E+01  0.178E+01    0.20       1.0  T
   7     -3.0920546 -0.344990E+01  0.197E+01    0.13       1.0  T
   8     -7.0666959 -0.397464E+01  0.153E+01    0.11       1.0  T
   9     -8.1438681 -0.107717E+01  0.147E+01    0.15       1.0  T
  10    -10.5500908 -0.240622E+01  0.119E+01    0.10       1.0  T
  11    -11.6571283 -0.110704E+01  0.108E+01    0.02       1.0  T
  12    -12.4554443 -0.798316E+00  0.979E+00    0.05       1.0  T
  13    -12.4231413  0.323031E-01  0.992E+00    0.09       1.0  T
  14    -12.4062071  0.169341E-01  0.993E+00    0.12       1.0  T
  15    -12.3929909  0.132162E-01  0.995E+00    0.09       1.0  T
  16    -12.0107612  0.382230E+00  0.102E+01    0.24       1.0  T
  17    -11.9506624  0.600988E-01  0.103E+01    0.26       1.0  T
  18    -11.9049545  0.457078E-01  0.105E+01    0.20       1.0  T
  19    -11.8842801  0.206744E-01  0.104E+01    0.20       1.0  T
  20    -11.7114710  0.172809E+00  0.114E+01    0.18       1.0  T
  21    -11.9646670 -0.253196E+00  0.958E+00    0.19       1.0  T
  22    -12.4329938 -0.468327E+00  0.806E+00    0.02       1.0  T
  23    -12.3836287  0.493651E-01  0.801E+00    0.07       1.0  T
  24    -12.4219794 -0.383507E-01  0.790E+00    0.06       1.0  T
  25    -12.4459829 -0.240036E-01  0.786E+00    0.07       1.0  T
  26    -12.5051379 -0.591549E-01  0.745E+00    0.07       1.0  T
  27    -12.7376920 -0.232554E+00  0.535E+00    0.08       1.0  T
  28    -12.7159666  0.217254E-01  0.507E+00    0.06       1.0  T
  29    -12.7586814 -0.427148E-01  0.486E+00    0.08       1.0  T
  30    -12.9180815 -0.159400E+00  0.403E+00    0.06       1.0  T
  31    -12.9598198 -0.417383E-01  0.380E+00    0.06       1.0  T
  32    -12.9416632  0.181565E-01  0.387E+00    0.05       1.0  T
  33    -13.0746736 -0.133010E+00  0.333E+00    0.06       1.0  T
  34    -13.1441660 -0.694924E-01  0.287E+00    0.09       1.0  T
  35    -13.1369742  0.719180E-02  0.286E+00    0.10       1.0  T
  36    -13.1577407 -0.207665E-01  0.274E+00    0.05       1.0  T
  37    -13.1626675 -0.492681E-02  0.214E+00    0.08       1.0  T
  38    -13.1690349 -0.636737E-02  0.191E+00    0.07       1.0  T
  39    -13.1698762 -0.841320E-03  0.183E+00    0.07       1.0  T
  40    -13.1752056 -0.532941E-02  0.171E+00    0.07       1.0  T
  41    -13.1844848 -0.927914E-02  0.121E+00    0.07       1.0  T
  42    -13.1842705  0.214271E-03  0.120E+00    0.07       1.0  T
  43    -13.1885765 -0.430602E-02  0.986E-01    0.08       1.0  T
  44    -13.1919956 -0.341903E-02  0.811E-01    0.06       1.0  T
  45    -13.1913821  0.613451E-03  0.916E-01    0.06       1.0  T
  46    -13.1948334 -0.345131E-02  0.754E-01    0.06       1.0  T
  47    -13.1945898  0.243638E-03  0.732E-01    0.06       1.0  T
  48    -13.1955936 -0.100383E-02  0.612E-01    0.07       1.0  T
  49    -13.1957154 -0.121784E-03  0.575E-01    0.07       1.0  T
  50    -13.1978985 -0.218309E-02  0.370E-01    0.07       1.0  T
  51    -13.1981938 -0.295361E-03  0.312E-01    0.07       1.0  T
  52    -13.1977169  0.476908E-03  0.304E-01    0.07       1.0  T
  53    -13.1979321 -0.215209E-03  0.262E-01    0.07       1.0  T
  54    -13.1981720 -0.239828E-03  0.211E-01    0.07       1.0  T
  55    -13.1985138 -0.341815E-03  0.173E-01    0.07       1.0  T
  56    -13.1986056 -0.918388E-04  0.149E-01    0.07       1.0  T
  57    -13.1986455 -0.399132E-04  0.121E-01    0.07       1.0  T
  58    -13.1986781 -0.325587E-04  0.101E-01    0.07       1.0  T
  59    -13.1987730 -0.949136E-04  0.720E-02    0.07       1.0  T
  60    -13.1988385 -0.654534E-04  0.420E-02    0.07       1.0  T
  61    -13.1988557 -0.171893E-04  0.292E-02    0.07       1.0  T
  62    -13.1988576 -0.199180E-05  0.230E-02    0.07       1.3  T
  63    -13.1988603 -0.267100E-05  0.173E-02    0.07       1.7  T
  64    -13.1988629 -0.256531E-05  0.116E-02    0.07       2.5  T
  65    -13.1988636 -0.698016E-06  0.869E-03    0.07       3.3  T
  66    -13.1988632  0.405060E-06  0.833E-03    0.07       3.5  T
  67    -13.1988634 -0.271305E-06  0.752E-03    0.07       3.8  T
  68    -13.1988636 -0.201234E-06  0.691E-03    0.07       4.2  T
  69    -13.1988638 -0.179106E-06  0.580E-03    0.07       5.0  T
  70    -13.1988640 -0.206069E-06  0.391E-03    0.07       7.4  T
  71    -13.1988640 -0.178761E-07  0.336E-03    0.07       8.6  T
  72    -13.1988641 -0.633710E-07  0.229E-03    0.07      12.6  T
  73    -13.1988641 -0.329272E-07  0.164E-03    0.07      17.6  T
  74    -13.1988642 -0.139975E-07  0.109E-03    0.07      26.5  T
  75    -13.1988642 -0.625088E-08  0.623E-04    0.07      46.3  T
  76    -13.1988642 -0.291691E-08  0.326E-04    0.07      88.6  T
  77    -13.1988642 -0.644814E-09  0.216E-04    0.07     133.4  T
  78    -13.1988642 -0.476051E-09  0.979E-05    0.07     294.8  T
  79    -13.1988642 -0.125322E-10  0.671E-05    0.07     430.4  T

   *** convergence criteria satisfied after 79 iterations ***

         #    Occupation            Energy/Eh            Energy/eV
      -------------------------------------------------------------
         1        2.0000           -0.4307501             -11.7213
       ...           ...                  ...                  ...
        13        2.0000           -0.2751194              -7.4864
        14        2.0000           -0.2703302              -7.3561
        15        2.0000           -0.2680149              -7.2931
        16        1.9917           -0.2558633              -6.9624
        17        1.9793           -0.2549808              -6.9384
        18        1.0104           -0.2479082              -6.7459
        19        0.7959           -0.2453142              -6.6753 (HOMO)
        20        0.2107           -0.2427760              -6.6063 (LUMO)
        21        0.0114           -0.2397916              -6.5251
        22        0.0005           -0.2367821              -6.4432
        23        0.0001           -0.2347212              -6.3871
        24                         -0.2266348              -6.1670
       ...                                ...                  ...
        48                          3.5681175              97.0934
      -------------------------------------------------------------
                  HL-Gap            0.0025382 Eh            0.0691 eV
             Fermi-level           -0.2476731 Eh           -6.7395 eV

 transition dipole moment (au) for excitation:          18          19
     X       Y       Z   
   0.4739  -0.7116  -0.6908  total (au/Debye):    1.099   2.794
 dE (eV)             :    0.071
 oscillator strength :  0.29546E-02

 SCC (total)                   0 d,  0 h,  0 min,  0.085 sec
 SCC setup                      ...        0 min,  0.000 sec (  0.164%)
 Dispersion                     ...        0 min,  0.000 sec (  0.105%)
 classical contributions        ...        0 min,  0.000 sec (  0.043%)
 integral evaluation            ...        0 min,  0.002 sec (  2.946%)
 iterations                     ...        0 min,  0.074 sec ( 87.906%)
 molecular gradient             ...        0 min,  0.004 sec (  4.951%)
 printout                       ...        0 min,  0.003 sec (  3.862%)

         :::::::::::::::::::::::::::::::::::::::::::::::::::::
         ::                     SUMMARY                     ::
         :::::::::::::::::::::::::::::::::::::::::::::::::::::
         :: total energy             -12.854025911838 Eh    ::
         :: gradient norm              1.033981855881 Eh/a0 ::
         :: HOMO-LUMO gap              0.069068971288 eV    ::
         ::.................................................::
         :: SCC energy               -13.198864169335 Eh    ::
         :: -> isotropic ES            0.054496076471 Eh    ::
         :: -> anisotropic ES         -0.000489667434 Eh    ::
         :: -> anisotropic XC         -0.037249730842 Eh    ::
         :: -> dispersion             -0.023251827330 Eh    ::
         :: repulsion energy           0.344540617877 Eh    ::
         :: add. restraining           0.000000000000 Eh    ::
         :: total charge               0.000000000263 e     ::
         :::::::::::::::::::::::::::::::::::::::::::::::::::::


Property printout bound to 'properties.out'

           -------------------------------------------------
          | TOTAL ENERGY              -12.854025911838 Eh   |
          | GRADIENT NORM               1.033981855881 Eh/α |
          | HOMO-LUMO GAP               0.069068971288 eV   |
           -------------------------------------------------

------------------------------------------------------------------------
 * finished run on 2026/04/17 at 12:14:53.921     
------------------------------------------------------------------------
 total:
 * wall-time:     0 d,  0 h,  0 min,  0.096 sec
 *  cpu-time:     0 d,  0 h,  0 min,  0.096 sec
 * ratio c/w:     0.999 speedup
 SCF:
 * wall-time:     0 d,  0 h,  0 min,  0.085 sec
 *  cpu-time:     0 d,  0 h,  0 min,  0.085 sec
 * ratio c/w:     0.999 speedup


-------------------------   --------------------
FINAL SINGLE POINT ENERGY       -12.854025911840
-------------------------   --------------------


-------------
DIPOLE MOMENT
-------------
                                X             Y             Z
Total Dipole Moment    :     -0.13700      -0.74300      -1.35100
                        -----------------------------------------
Magnitude (a.u.)       :      1.54791
Magnitude (Debye)      :      3.93447


------------------
CARTESIAN GRADIENT
------------------

   1   B   :    0.113810437    0.028986524    0.068282735
   2   B   :   -0.037639568    0.012489642   -0.026515903
   3   B   :   -0.101708068   -0.085586556   -0.065859088
   4   B   :    0.033172076   -0.068596247    0.015272752
   5   B   :   -0.074650013    0.042081521    0.038407526
   6   B   :   -0.045740587   -0.011528494    0.040030536
   7   B   :    0.622408245   -0.256722858    0.263416948
   8   B   :    0.023766150   -0.037269431   -0.028855057
   9   B   :   -0.584495713    0.237215044   -0.263044296
  10   B   :    0.017201300    0.074636222    0.002775270
  11   B   :    0.017087113    0.011207030   -0.070775467
  12   B   :    0.016788629    0.053087603    0.026864045

Difference to translation invariance:
           :   -0.0000000000    0.0000000000    0.0000000000

Difference to rotation invariance:
           :   -0.0000000359    0.0000000119   -0.0000000091

Norm of the Cartesian gradient     ...    1.0339818559
RMS gradient                       ...    0.1723303093
MAX gradient                       ...    0.6224082454
------------------------------------------------------------------------------
                         ORCA GEOMETRY RELAXATION STEP
------------------------------------------------------------------------------

Reading the OPT-File                    .... done
Getting information on internals        .... done
Copying old internal coords+grads       .... done
Making the new internal coordinates     .... (2022 redundants) done
Validating the new internal coordinates .... (2022 redundants) done
Calculating the B-matrix                .... done
Calculating the G,G- and P matrices     .... done
Transforming gradient to internals      .... done
Projecting the internal gradient        .... done
Number of atoms                         ....  12
Number of internal coordinates          ....  75
Current Energy                          ....   -12.854025912 Eh
Current gradient norm                   ....     1.033981856 Eh/bohr
Maximum allowed component of the step   ....  0.300
Current trust radius                    ....  0.300
Evaluating the initial hessian          ....  (Almloef) done
Projecting the Hessian                  .... done
Forming the augmented Hessian           .... done
Diagonalizing the augmented Hessian     .... done
Last element of RFO vector              ....  0.821156186
Lowest eigenvalues of augmented Hessian:
 -0.395240421  0.010000000  0.010124358  0.010998088  0.011971654
Length of the computed step             ....  0.694999976
Warning: the length of the step is outside the trust region - taking restricted step instead
The input lambda is                     ....     0.009000
   iter:   5  x=    0.000437  g=123668.397646 f(x)=   422.765175
   iter:  10  x=   -0.089558  g=  224.760993 f(x)=     8.627915
   iter:  15  x=   -0.940904  g=    0.520788 f(x)=     0.155085
   iter:  20  x=   -1.354900  g=    0.089358 f(x)=     0.000000
The output lambda is                    ....    -1.354900 (21 iterations)
The final length of the internal step   ....  0.300000000
Converting the step to Cartesian space:
 Initial RMS(Int)=    0.0346410162
Transforming coordinates:
 Iter   0:  RMS(Cart)=    0.1815512878 RMS(Int)=    0.0344282384
 Iter   5:  RMS(Cart)=    0.0000002169 RMS(Int)=    0.0000001674
done
Storing new coordinates                 .... done

                                .--------------------.
          ----------------------|Geometry convergence|-------------------------
          Item                value                   Tolerance       Converged
          ---------------------------------------------------------------------
          RMS gradient        0.0844325042            0.0000300000      NO
          MAX gradient        0.6314626642            0.0001000000      NO
          RMS step            0.0346410162            0.0006000000      NO
          MAX step            0.2064485922            0.0010000000      NO
          -------------------------------------------------------------------------
          ........................................................
          Max(Bonds)      0.1092      Max(Angles)    3.72
          Max(Dihed)        3.04      Max(Improp)    0.00
          ---------------------------------------------------------------------

The optimization has not yet converged - more geometry cycles are needed


    ---------------------------------------------------------------------------
                         Redundant Internal Coordinates
                            (Angstroem and degrees)

        Definition                    Value    dE/dq     Step     New-Value
    ----------------------------------------------------------------------------
     1. B(B   2,B   0)                1.3607 -0.134150  0.0310    1.3917   
     2. B(B   2,B   1)                2.2924  0.071305 -0.0272    2.2652   
     3. B(B   4,B   2)                1.5446 -0.008601  0.0026    1.5472   
     4. B(B   4,B   3)                2.2883  0.070296 -0.0268    2.2615   
     5. B(B   6,B   5)                2.2217  0.059589 -0.0226    2.1990   
     6. B(B   6,B   1)                3.1596  0.034816 -0.0128    3.1467   
     7. B(B   8,B   6)                1.1764 -0.631463  0.1092    1.2856   
     8. B(B   9,B   7)                2.1787  0.045864 -0.0173    2.1613   
     9. B(B   9,B   8)                2.7261 -0.029927  0.0004    2.7265   
    10. B(B   9,B   6)                2.6273  0.065608 -0.0186    2.6087   
    11. B(B  10,B   4)                1.6346  0.026184 -0.0090    1.6256   
    12. B(B  10,B   2)                1.9274  0.035845 -0.0122    1.9152   
    13. B(B  11,B   6)                2.7938  0.005952 -0.0019    2.7918   
    14. B(B  11,B   1)                2.6005  0.048026 -0.0198    2.5807   
    15. A(B   2,B   1,B  11)          142.62  0.096678   -3.72    138.89   
    16. A(B   6,B   1,B  11)           57.04 -0.006636    0.29     57.33   
    17. A(B   2,B   1,B   6)           86.96  0.096459   -3.71     83.25   
    18. A(B   4,B   2,B  10)           54.84  0.002030   -0.08     54.77   
    19. A(B   1,B   2,B   4)          136.10  0.060560   -2.34    133.75   
    20. A(B   0,B   2,B   4)          116.79 -0.011321    0.50    117.29   
    21. A(B   0,B   2,B   1)          107.08 -0.048575    1.82    108.90   
    22. A(B   0,B   2,B  10)           87.31  0.009825   -0.38     86.93   
    23. A(B   1,B   2,B  10)          129.10  0.008716   -0.33    128.77   
    24. A(B   2,B   4,B   3)          156.19  0.020231   -0.73    155.46   
    25. A(B   3,B   4,B  10)          128.01 -0.028086    1.01    129.02   
    26. A(B   2,B   4,B  10)           74.58  0.010129   -0.36     74.22   
    27. A(B   1,B   6,B   8)          166.31  0.014753   -0.28    166.03   
    28. A(B   5,B   6,B   9)          153.43 -0.022483    0.25    153.68   
    29. A(B   8,B   6,B  11)          134.39 -0.007867    0.29    134.68   
    30. A(B   9,B   6,B  11)           78.04 -0.044927    1.12     79.16   
    31. A(B   8,B   6,B   9)           82.05  0.046692   -0.78     81.27   
    32. A(B   1,B   6,B   5)           68.71  0.013958   -0.39     68.32   
    33. A(B   5,B   6,B  11)           77.30  0.021283   -0.72     76.58   
    34. A(B   5,B   6,B   8)          122.85 -0.029292    0.72    123.57   
    35. A(B   1,B   6,B  11)           51.35  0.005431   -0.26     51.09   
    36. A(B   1,B   6,B   9)           88.11 -0.029504    0.36     88.48   
    37. A(B   6,B   8,B   9)           72.65  0.081760   -1.68     70.97   
    38. A(B   7,B   9,B   8)           77.54  0.058939   -1.97     75.57   
    39. A(B   6,B   9,B   7)           83.86  0.034205   -1.66     82.20   
    40. A(B   6,B   9,B   8)           25.30 -0.128452    2.46     27.76   
    41. A(B   2,B  10,B   4)           50.58 -0.012159    0.44     51.02   
    42. A(B   1,B  11,B   6)           71.61  0.001205   -0.02     71.58   
    43. D(B   4,B   2,B   1,B   6)    -29.03  0.052219   -2.20    -31.23   
    44. D(B   0,B   2,B   1,B  11)    168.09  0.009668   -0.35    167.73   
    45. D(B   0,B   2,B   1,B   6)    153.27  0.030933   -1.34    151.92   
    46. D(B   4,B   2,B   1,B  11)    -14.20  0.030954   -1.22    -15.42   
    47. D(B  10,B   2,B   1,B  11)    -91.16 -0.015809    0.58    -90.58   
    48. D(B  10,B   4,B   2,B   1)   -112.37  0.005634   -0.23   -112.60   
    49. D(B  10,B   4,B   2,B   0)     65.18  0.028035   -1.14     64.03   
    50. D(B   3,B   4,B   2,B   1)     50.81  0.011596   -0.50     50.31   
    51. D(B   3,B   4,B   2,B  10)    163.18  0.005961   -0.27    162.91   
    52. D(B   3,B   4,B   2,B   0)   -131.64  0.033997   -1.41   -133.06   
    53. D(B   5,B   6,B   1,B   2)   -100.12  0.053322   -2.13   -102.25   
    54. D(B   8,B   6,B   1,B  11)   -120.11 -0.009584    0.25   -119.86   
    55. D(B  11,B   6,B   1,B   2)    169.33  0.038162   -1.59    167.75   
    56. D(B   5,B   6,B   1,B  11)     90.55  0.015161   -0.55     90.00   
    57. D(B   8,B   6,B   1,B   2)     49.22  0.028578   -1.34     47.88   
    58. D(B   9,B   6,B   1,B   2)     93.16  0.071208   -2.69     90.47   
    59. D(B   9,B   8,B   6,B   5)   -169.99  0.016656   -0.55   -170.54   
    60. D(B   9,B   8,B   6,B   1)     44.45  0.036043   -1.25     43.20   
    61. D(B   9,B   8,B   6,B  11)    -64.57  0.010179   -0.63    -65.20   
    62. D(B   7,B   9,B   8,B   6)   -102.20 -0.040773    1.37   -100.83   
    63. D(B   7,B   9,B   6,B   1)    -96.74 -0.002013    0.11    -96.62   
    64. D(B   7,B   9,B   6,B  11)   -147.56 -0.009032    0.33   -147.23   
    65. D(B   7,B   9,B   6,B   8)     73.72  0.001830    0.14     73.86   
    66. D(B   8,B   9,B   6,B   5)    160.95 -0.023598    1.07    162.02   
    67. D(B   8,B   9,B   6,B   1)   -170.46 -0.003844   -0.02   -170.48   
    68. D(B   8,B   9,B   6,B  11)    138.72 -0.010863    0.20    138.92   
    69. D(B   2,B  10,B   4,B   3)   -171.47 -0.013122    0.50   -170.97   
    70. D(B   4,B  10,B   2,B   1)    124.28  0.078522   -3.04    121.24   
    71. D(B   4,B  10,B   2,B   0)   -125.80  0.025270   -1.06   -126.86   
    72. D(B   1,B  11,B   6,B   8)    163.36  0.022073   -0.48    162.88   
    73. D(B   6,B  11,B   1,B   2)    -17.73  0.022675   -1.07    -18.80   
    74. D(B   1,B  11,B   6,B   9)     97.25 -0.003192   -0.37     96.88   
    75. D(B   1,B  11,B   6,B   5)    -72.76 -0.001608   -0.05    -72.81   
    ----------------------------------------------------------------------------

Geometry step timings:
Preparation and reading OPT file:      0.000 s ( 3.264 %)
Internal coordinates            :      0.000 s ( 1.274 %)
B/P matrices and projection     :      0.001 s (15.729 %)
Hessian update/contruction      :      0.000 s (11.968 %)
Making the step                 :      0.001 s (41.219 %)
Converting the step to Cartesian:      0.000 s ( 3.948 %)
Storing new data                :      0.000 s ( 1.616 %)
Checking convergence            :      0.000 s ( 1.306 %)
Final printing                  :      0.001 s (19.646 %)
Total time                      :      0.003 s

Time for energy+gradient        :      0.106 s
Time for complete geometry iter :      0.111 s

         *************************************************************
         *                GEOMETRY OPTIMIZATION CYCLE   2            *
         *************************************************************
---------------------------------
CARTESIAN COORDINATES (ANGSTROEM)
---------------------------------
  B    -2.742908   -0.936029   -1.518766
  B    -1.675633    1.547267   -0.175398
  B    -1.503137   -0.547590   -1.019777
  B     1.475012   -2.728815   -0.523284
  B    -0.327012   -1.537803   -1.192965
  B    -1.266034    0.575577    2.742377
  B     0.666890    0.587917    1.693845
  B     2.342919   -0.597058   -0.700262
  B     1.746945    0.095912    2.187793
  B     2.356698    1.474624   -0.084373
  B    -0.767456   -1.107002   -2.697266
  B    -0.306285    3.172999    1.288077

----------------------------
CARTESIAN COORDINATES (A.U.)
----------------------------
  NO LB    ZA    FRAG    MASS        X           Y           Z
   0 B   5.0000    0    10.810   -5.183345   -1.768839   -2.870053
   1 B   5.0000    0    10.810   -3.166487    2.923912   -0.331454
   2 B   5.0000    0    10.810   -2.840518   -1.034795   -1.927100
   3 B   5.0000    0    10.810    2.787369   -5.156713   -0.988863
   4 B   5.0000    0    10.810   -0.617964   -2.906027   -2.254377
   5 B   5.0000    0    10.810   -2.392457    1.087683    5.182341
   6 B   5.0000    0    10.810    1.260240    1.111002    3.200903
   7 B   5.0000    0    10.810    4.427476   -1.128276   -1.323304
   8 B   5.0000    0    10.810    3.301248    0.181247    4.134330
   9 B   5.0000    0    10.810    4.453514    2.786636   -0.159442
  10 B   5.0000    0    10.810   -1.450281   -2.091931   -5.097095
  11 B   5.0000    0    10.810   -0.578794    5.996100    2.434112

      -----------------------------------------------------------      
     |                   =====================                   |     
     |                           x T B                           |     
     |                   =====================                   |     
     |                         S. Grimme                         |     
     |          Mulliken Center for Theoretical Chemistry        |     
     |                    University of Bonn                     |     
      -----------------------------------------------------------      

   * xtb version 6.6.1 (unknown) compiled by 'builduser@buildhost' on 2023-08-07

   xtb is free software: you can redistribute it and/or modify it under
   the terms of the GNU Lesser General Public License as published by
   the Free Software Foundation, either version 3 of the License, or
   (at your option) any later version.
   
   xtb is distributed in the hope that it will be useful,
   but WITHOUT ANY WARRANTY; without even the implied warranty of
   MERCHANTABILITY or FITNESS FOR A PARTICULAR PURPOSE.  See the
   GNU Lesser General Public License for more details.
   
   Cite this work as:
   * C. Bannwarth, E. Caldeweyher, S. Ehlert, A. Hansen, P. Pracht,
     J. Seibert, S. Spicher, S. Grimme, WIREs Comput. Mol. Sci., 2020, 11,
     e01493. DOI: 10.1002/wcms.1493
   
   for GFN2-xTB:
   * C. Bannwarth, S. Ehlert and S. Grimme., J. Chem. Theory Comput., 2019,
     15, 1652-1671. DOI: 10.1021/acs.jctc.8b01176
   for GFN1-xTB:
   * S. Grimme, C. Bannwarth, P. Shushkov, J. Chem. Theory Comput., 2017,
     13, 1989-2009. DOI: 10.1021/acs.jctc.7b00118
   for GFN0-xTB:
   * P. Pracht, E. Caldeweyher, S. Ehlert, S. Grimme, ChemRxiv, 2019, preprint.
     DOI: 10.26434/chemrxiv.8326202.v1
   for GFN-FF:
   * S. Spicher and S. Grimme, Angew. Chem. Int. Ed., 2020, 59, 15665-15673.
     DOI: 10.1002/anie.202004239
   
   for ALPB and GBSA implicit solvation:
   * S. Ehlert, M. Stahn, S. Spicher, S. Grimme, J. Chem. Theory Comput.,
     2021, 17, 4250-4261. DOI: 10.1021/acs.jctc.1c00471
   
   for DFT-D4:
   * E. Caldeweyher, C. Bannwarth and S. Grimme, J. Chem. Phys., 2017,
     147, 034112. DOI: 10.1063/1.4993215
   * E. Caldeweyher, S. Ehlert, A. Hansen, H. Neugebauer, S. Spicher,
     C. Bannwarth and S. Grimme, J. Chem. Phys., 2019, 150, 154122.
     DOI: 10.1063/1.5090222
   * E. Caldeweyher, J.-M. Mewes, S. Ehlert and S. Grimme, Phys. Chem. Chem. Phys.
     2020, 22, 8499-8512. DOI: 10.1039/D0CP00502A
   
   for sTDA-xTB:
   * S. Grimme and C. Bannwarth, J. Chem. Phys., 2016, 145, 054103.
     DOI: 10.1063/1.4959605
   
   in the mass-spec context:
   * V. Asgeirsson, C. Bauer and S. Grimme, Chem. Sci., 2017, 8, 4879.
     DOI: 10.1039/c7sc00601b
   * J. Koopman and S. Grimme, ACS Omega 2019, 4, 12, 15120-15133.
     DOI: 10.1021/acsomega.9b02011
   
   for metadynamics refer to:
   * S. Grimme, J. Chem. Theory Comput., 2019, 155, 2847-2862
     DOI: 10.1021/acs.jctc.9b00143
   
   for SPH calculations refer to:
   * S. Spicher and S. Grimme, J. Chem. Theory Comput., 2021, 17, 1701-1714
     DOI: 10.1021/acs.jctc.0c01306
   
   with help from (in alphabetical order)
   P. Atkinson, C. Bannwarth, F. Bohle, G. Brandenburg, E. Caldeweyher
   M. Checinski, S. Dohm, S. Ehlert, S. Ehrlich, I. Gerasimov, C. Hölzer
   A. Katbashev, J. Koopman, C. Lavigne, S. Lehtola, F. März, M. Müller,
   F. Musil, H. Neugebauer, J. Pisarek, C. Plett, P. Pracht, F. Pultar,
   J. Seibert, P. Shushkov, S. Spicher, M. Stahn, M. Steiner, T. Strunk,
   J. Stückrath, T. Rose, and J. Unsleber
   
 * started run on 2026/04/17 at 12:14:53.935     

           -------------------------------------------------
          |                Calculation Setup                |
           -------------------------------------------------

          program call               : /usr/bin/xtb random_d2.10_006_m3_XTB.xyz --grad -c 0 -u 2 -P 1 --namespace random_d2.10_006_m3 --input random_d2.10_006_m3_XTB.input.tmp --acc 0.200000
          calculation namespace      : random_d2.10_006_m3
          coordinate file            : random_d2.10_006_m3_XTB.xyz
          omp threads                :                     1

   ID    Z sym.   atoms
    1    5 B      1-12

molecular fragmentation (1/2 indicates fragments):
121212222212
# atoms in fragment 1/2:     4     8
 fragment masses (1/2) :       43.24       86.49
CMA distance (Bohr)    :   6.606
constraining FC (au)   :  0.0500

           -------------------------------------------------
          |                 G F N 2 - x T B                 |
           -------------------------------------------------

        Reference                      10.1021/acs.jctc.8b01176
      * Hamiltonian:
        H0-scaling (s, p, d)           1.850000    2.230000    2.230000
        zeta-weighting                 0.500000
      * Dispersion:
        s8                             2.700000
        a1                             0.520000
        a2                             5.000000
        s9                             5.000000
      * Repulsion:
        kExp                           1.500000    1.000000
        rExp                           1.000000
      * Coulomb:
        alpha                          2.000000
        third order                    shell-resolved
        anisotropic                    true
        a3                             3.000000
        a5                             4.000000
        cn-shift                       1.200000
        cn-exp                         4.000000
        max-rad                        5.000000

q/qsh data taken from xtbrestart
CAMM data taken from xtbrestart

          ...................................................
          :                      SETUP                      :
          :.................................................:
          :  # basis functions                  48          :
          :  # atomic orbitals                  48          :
          :  # shells                           24          :
          :  # electrons                        36          :
          :  max. iterations                   250          :
          :  Hamiltonian                  GFN2-xTB          :
          :  restarted?                       true          :
          :  GBSA solvation                  false          :
          :  PC potential                    false          :
          :  electronic temp.          300.0000000     K    :
          :  accuracy                    0.2000000          :
          :  -> integral cutoff          0.3198970E+02      :
          :  -> integral neglect         0.2000000E-08      :
          :  -> SCF convergence          0.2000000E-06 Eh   :
          :  -> wf. convergence          0.2000000E-04 e    :
          :  Broyden damping             0.4000000          :
          ...................................................

 iter      E             dE          RMSdq      gap      omega  full diag
   1    -13.2255223 -0.132255E+02  0.369E+00    0.07       0.0  T
   2    -12.2161341  0.100939E+01  0.697E+00    0.16       1.0  T
   3    -11.6247176  0.591416E+00  0.782E+00    0.08       1.0  T
   4    -12.0665575 -0.441840E+00  0.772E+00    0.20       1.0  T
   5    -12.7369424 -0.670385E+00  0.472E+00    0.10       1.0  T
   6     -9.8545607  0.288238E+01  0.123E+01    0.17       1.0  T
   7    -12.2649727 -0.241041E+01  0.619E+00    0.07       1.0  T
   8    -11.3910255  0.873947E+00  0.848E+00    0.08       1.0  T
   9    -12.7895818 -0.139856E+01  0.480E+00    0.11       1.0  T
  10    -12.7597113  0.298706E-01  0.472E+00    0.09       1.0  T
  11    -12.9671280 -0.207417E+00  0.380E+00    0.02       1.0  T
  12    -13.1123238 -0.145196E+00  0.264E+00    0.04       1.0  T
  13    -13.1141136 -0.178982E-02  0.265E+00    0.05       1.0  T
  14    -13.1684636 -0.543500E-01  0.205E+00    0.10       1.0  T
  15    -13.1738695 -0.540588E-02  0.197E+00    0.11       1.0  T
  16    -13.1811896 -0.732012E-02  0.187E+00    0.11       1.0  T
  17    -13.1975238 -0.163342E-01  0.163E+00    0.09       1.0  T
  18    -13.2031922 -0.566833E-02  0.163E+00    0.07       1.0  T
  19    -13.1992613  0.393082E-02  0.179E+00    0.07       1.0  T
  20    -13.1989311  0.330249E-03  0.168E+00    0.08       1.0  T
  21    -13.1989959 -0.647942E-04  0.168E+00    0.08       1.0  T
  22    -13.2071436 -0.814776E-02  0.146E+00    0.09       1.0  T
  23    -13.2220482 -0.149045E-01  0.106E+00    0.09       1.0  T
  24    -13.2299181 -0.786987E-02  0.773E-01    0.09       1.0  T
  25    -13.2314299 -0.151184E-02  0.672E-01    0.08       1.0  T
  26    -13.2315189 -0.890160E-04  0.661E-01    0.08       1.0  T
  27    -13.2298971  0.162184E-02  0.787E-01    0.08       1.0  T
  28    -13.2312966 -0.139953E-02  0.645E-01    0.08       1.0  T
  29    -13.2351454 -0.384876E-02  0.313E-01    0.09       1.0  T
  30    -13.2351843 -0.389019E-04  0.279E-01    0.09       1.0  T
  31    -13.2360028 -0.818542E-03  0.199E-01    0.09       1.0  T
  32    -13.2359940  0.877055E-05  0.215E-01    0.09       1.0  T
  33    -13.2363021 -0.308041E-03  0.146E-01    0.09       1.0  T
  34    -13.2364195 -0.117473E-03  0.101E-01    0.10       1.0  T
  35    -13.2364748 -0.552236E-04  0.795E-02    0.10       1.0  T
  36    -13.2365073 -0.325772E-04  0.572E-02    0.10       1.0  T
  37    -13.2365154 -0.802867E-05  0.460E-02    0.10       1.0  T
  38    -13.2365336 -0.182559E-04  0.187E-02    0.10       1.5  T
  39    -13.2365359 -0.225316E-05  0.961E-03    0.10       3.0  T
  40    -13.2365364 -0.519178E-06  0.655E-03    0.10       4.4  T
  41    -13.2365366 -0.212434E-06  0.440E-03    0.10       6.6  T
  42    -13.2365367 -0.533878E-07  0.375E-03    0.10       7.7  T
  43    -13.2365367 -0.561047E-07  0.220E-03    0.10      13.1  T
  44    -13.2365367 -0.251072E-07  0.124E-03    0.10      23.3  T
  45    -13.2365368 -0.113797E-07  0.108E-03    0.10      26.6  T
  46    -13.2365368 -0.649663E-08  0.478E-04    0.10      60.4  T
  47    -13.2365368 -0.138983E-08  0.264E-04    0.10     109.3  T
  48    -13.2365368 -0.479519E-09  0.116E-04    0.10     248.9  T
  49    -13.2365368 -0.685212E-10  0.889E-05    0.10     324.7  T

   *** convergence criteria satisfied after 49 iterations ***

         #    Occupation            Energy/Eh            Energy/eV
      -------------------------------------------------------------
         1        2.0000           -0.4265117             -11.6060
       ...           ...                  ...                  ...
        13        2.0000           -0.2725721              -7.4171
        14        2.0000           -0.2666753              -7.2566
        15        2.0000           -0.2641267              -7.1873
        16        1.9999           -0.2559195              -6.9639
        17        1.9839           -0.2506943              -6.8217
        18        0.9331           -0.2423723              -6.5953
        19        0.8986           -0.2420112              -6.5855 (HOMO)
        20        0.1638           -0.2384547              -6.4887 (LUMO)
        21        0.0202           -0.2363170              -6.4305
        22        0.0003           -0.2322528              -6.3199
        23        0.0001           -0.2312855              -6.2936
        24                         -0.2219633              -6.0399
       ...                                ...                  ...
        48                          2.1276681              57.8968
      -------------------------------------------------------------
                  HL-Gap            0.0035564 Eh            0.0968 eV
             Fermi-level           -0.2433959 Eh           -6.6231 eV

 transition dipole moment (au) for excitation:          18          19
     X       Y       Z   
   0.0219   0.5305   1.0106  total (au/Debye):    1.142   2.902
 dE (eV)             :    0.010
 oscillator strength :  0.44370E-03

 SCC (total)                   0 d,  0 h,  0 min,  0.058 sec
 SCC setup                      ...        0 min,  0.000 sec (  0.197%)
 Dispersion                     ...        0 min,  0.000 sec (  0.142%)
 classical contributions        ...        0 min,  0.000 sec (  0.047%)
 integral evaluation            ...        0 min,  0.002 sec (  3.706%)
 iterations                     ...        0 min,  0.047 sec ( 80.387%)
 molecular gradient             ...        0 min,  0.005 sec (  8.716%)
 printout                       ...        0 min,  0.004 sec (  6.767%)

         :::::::::::::::::::::::::::::::::::::::::::::::::::::
         ::                     SUMMARY                     ::
         :::::::::::::::::::::::::::::::::::::::::::::::::::::
         :: total energy             -13.032576146525 Eh    ::
         :: gradient norm              0.465411139060 Eh/a0 ::
         :: HOMO-LUMO gap              0.096775907234 eV    ::
         ::.................................................::
         :: SCC energy               -13.236536768191 Eh    ::
         :: -> isotropic ES            0.056241884817 Eh    ::
         :: -> anisotropic ES         -0.000106095783 Eh    ::
         :: -> anisotropic XC         -0.037346911647 Eh    ::
         :: -> dispersion             -0.024103364129 Eh    ::
         :: repulsion energy           0.203692563292 Eh    ::
         :: add. restraining           0.000000000000 Eh    ::
         :: total charge              -0.000000000000 e     ::
         :::::::::::::::::::::::::::::::::::::::::::::::::::::


Property printout bound to 'properties.out'

           -------------------------------------------------
          | TOTAL ENERGY              -13.032576146525 Eh   |
          | GRADIENT NORM               0.465411139060 Eh/α |
          | HOMO-LUMO GAP               0.096775907234 eV   |
           -------------------------------------------------

------------------------------------------------------------------------
 * finished run on 2026/04/17 at 12:14:54.005     
------------------------------------------------------------------------
 total:
 * wall-time:     0 d,  0 h,  0 min,  0.070 sec
 *  cpu-time:     0 d,  0 h,  0 min,  0.070 sec
 * ratio c/w:     0.999 speedup
 SCF:
 * wall-time:     0 d,  0 h,  0 min,  0.058 sec
 *  cpu-time:     0 d,  0 h,  0 min,  0.058 sec
 * ratio c/w:     1.000 speedup


-------------------------   --------------------
FINAL SINGLE POINT ENERGY       -13.032576146530
-------------------------   --------------------


-------------
DIPOLE MOMENT
-------------
                                X             Y             Z
Total Dipole Moment    :      0.20900      -1.44200      -1.45500
                        -----------------------------------------
Magnitude (a.u.)       :      2.05914
Magnitude (Debye)      :      5.23393


------------------
CARTESIAN GRADIENT
------------------

   1   B   :    0.071511578    0.027127687    0.054928043
   2   B   :   -0.040956195    0.015068564   -0.026656763
   3   B   :   -0.060810689   -0.083488539   -0.050716271
   4   B   :    0.021790850   -0.098814471    0.021060720
   5   B   :   -0.074923791    0.034392283    0.034985924
   6   B   :   -0.048300369   -0.010117020    0.042453950
   7   B   :    0.259135292   -0.116725299    0.081791686
   8   B   :    0.031754527   -0.002335796   -0.034483801
   9   B   :   -0.219694076    0.095679566   -0.081913722
  10   B   :    0.021093453    0.074411599    0.000826606
  11   B   :    0.019531240    0.011283761   -0.068581602
  12   B   :    0.019868180    0.053517667    0.026305229

Difference to translation invariance:
           :    0.0000000000   -0.0000000000    0.0000000000

Difference to rotation invariance:
           :   -0.0000000277    0.0000000465   -0.0000000083

Norm of the Cartesian gradient     ...    0.4654111391
RMS gradient                       ...    0.0775685232
MAX gradient                       ...    0.2591352919
------------------------------------------------------------------------------
                         ORCA GEOMETRY RELAXATION STEP
------------------------------------------------------------------------------

Reading the OPT-File                    .... done
Getting information on internals        .... done
Copying old internal coords+grads       .... done
Making the new internal coordinates     .... (2022 redundants) done
Validating the new internal coordinates .... (2022 redundants) done
Calculating the B-matrix                .... done
Calculating the G,G- and P matrices     .... done
Transforming gradient to internals      .... done
Projecting the internal gradient        .... done
Number of atoms                         ....  12
Number of internal coordinates          ....  75
Current Energy                          ....   -13.032576147 Eh
Current gradient norm                   ....     0.465411139 Eh/bohr
Maximum allowed component of the step   ....  0.300
Current trust radius                    ....  0.300
Updating the Hessian (BFGS)             .... done
Forming the augmented Hessian           .... done
Diagonalizing the augmented Hessian     .... done
Last element of RFO vector              ....  0.712698815
Lowest eigenvalues of augmented Hessian:
 -0.563254952  0.010089491  0.010096410  0.011089346  0.011940108
Length of the computed step             ....  0.984244895
Warning: the length of the step is outside the trust region - taking restricted step instead
The input lambda is                     ....     0.003732
   iter:   5  x=   -0.002884  g=3615394.200519 f(x)=  9205.415549
   iter:  10  x=   -0.055283  g= 7972.343176 f(x)=   163.573128
   iter:  15  x=   -0.474870  g=   18.007127 f(x)=     2.878982
   iter:  20  x=   -1.862631  g=    0.128522 f(x)=     0.020635
   iter:  25  x=   -1.889279  g=    0.094286 f(x)=    -0.000000
The output lambda is                    ....    -1.889279 (25 iterations)
The final length of the internal step   ....  0.300000000
Converting the step to Cartesian space:
 Initial RMS(Int)=    0.0346410162
Transforming coordinates:
 Iter   0:  RMS(Cart)=    0.2605780975 RMS(Int)=    0.0346101481
 Iter   5:  RMS(Cart)=    0.0000018761 RMS(Int)=    0.0000012286
done
Storing new coordinates                 .... done
The predicted energy change is          ....    -0.170987984
Previously predicted energy change      ....    -0.164676169
Actually observed energy change         ....    -0.178550235
Ratio of predicted to observed change   ....     1.084250596
New trust radius                        ....     0.450000000

                                .--------------------.
          ----------------------|Geometry convergence|-------------------------
          Item                value                   Tolerance       Converged
          ---------------------------------------------------------------------
          Energy change      -0.1785502347            0.0000010000      NO
          RMS gradient        0.0662443230            0.0000300000      NO
          MAX gradient        0.2389627526            0.0001000000      NO
          RMS step            0.0346410162            0.0006000000      NO
          MAX step            0.1346945186            0.0010000000      NO
          -------------------------------------------------------------------------
          ........................................................
          Max(Bonds)      0.0713      Max(Angles)    5.33
          Max(Dihed)        4.54      Max(Improp)    0.00
          ---------------------------------------------------------------------

The optimization has not yet converged - more geometry cycles are needed


    ---------------------------------------------------------------------------
                         Redundant Internal Coordinates
                            (Angstroem and degrees)

        Definition                    Value    dE/dq     Step     New-Value
    ----------------------------------------------------------------------------
     1. B(B   2,B   0)                1.3917 -0.090969  0.0242    1.4159   
     2. B(B   2,B   1)                2.2652  0.102623 -0.0285    2.2367   
     3. B(B   4,B   2)                1.5472  0.011358 -0.0022    1.5450   
     4. B(B   4,B   3)                2.2615  0.075641 -0.0211    2.2404   
     5. B(B   6,B   5)                2.1990  0.062755 -0.0175    2.1815   
     6. B(B   6,B   1)                3.1467  0.034990 -0.0098    3.1369   
     7. B(B   8,B   6)                1.2855 -0.238963  0.0713    1.3568   
     8. B(B   9,B   7)                2.1613  0.011863 -0.0036    2.1577   
     9. B(B   9,B   8)                2.7268  0.020745 -0.0053    2.7215   
    10. B(B   9,B   6)                2.6084  0.053240 -0.0152    2.5932   
    11. B(B  10,B   4)                1.6256  0.010491 -0.0037    1.6219   
    12. B(B  10,B   2)                1.9152  0.041806 -0.0113    1.9039   
    13. B(B  11,B   6)                2.7918 -0.013875  0.0037    2.7955   
    14. B(B  11,B   1)                2.5807  0.062523 -0.0173    2.5634   
    15. A(B   2,B   1,B  11)          138.90  0.182888   -5.33    133.57   
    16. A(B   6,B   1,B  11)           57.33 -0.012018    0.36     57.68   
    17. A(B   2,B   1,B   6)           83.27  0.178846   -5.23     78.04   
    18. A(B   4,B   2,B  10)           54.76 -0.006716    0.16     54.92   
    19. A(B   1,B   2,B   4)          133.75  0.128130   -3.68    130.07   
    20. A(B   0,B   2,B   4)          117.28 -0.030805    0.90    118.19   
    21. A(B   0,B   2,B   1)          108.90 -0.095635    2.74    111.64   
    22. A(B   0,B   2,B  10)           86.94  0.011788   -0.35     86.59   
    23. A(B   1,B   2,B  10)          128.75  0.032533   -0.85    127.90   
    24. A(B   2,B   4,B   3)          155.46  0.036056   -1.03    154.43   
    25. A(B   3,B   4,B  10)          129.01 -0.042294    1.22    130.23   
    26. A(B   2,B   4,B  10)           74.22  0.011999   -0.35     73.87   
    27. A(B   1,B   6,B   8)          166.02  0.003147   -0.12    165.90   
    28. A(B   5,B   6,B   9)          153.69 -0.018063    0.53    154.22   
    29. A(B   8,B   6,B  11)          134.68 -0.007657    0.24    134.92   
    30. A(B   9,B   6,B  11)           79.16 -0.048551    1.47     80.63   
    31. A(B   8,B   6,B   9)           81.24  0.022421   -0.69     80.55   
    32. A(B   1,B   6,B   5)           68.32  0.006404   -0.21     68.11   
    33. A(B   5,B   6,B  11)           76.59  0.022118   -0.69     75.90   
    34. A(B   5,B   6,B   8)          123.58 -0.013205    0.43    124.01   
    35. A(B   1,B   6,B  11)           51.09  0.009593   -0.28     50.80   
    36. A(B   1,B   6,B   9)           88.49 -0.009615    0.30     88.79   
    37. A(B   6,B   8,B   9)           70.99  0.029681   -0.97     70.02   
    38. A(B   7,B   9,B   8)           75.60  0.083004   -2.47     73.14   
    39. A(B   6,B   9,B   7)           82.20  0.084452   -2.43     79.77   
    40. A(B   6,B   9,B   8)           27.77 -0.052102    1.66     29.43   
    41. A(B   2,B  10,B   4)           51.02 -0.005283    0.20     51.22   
    42. A(B   1,B  11,B   6)           71.58  0.002425   -0.07     71.51   
    43. D(B   4,B   2,B   1,B   6)    -31.23  0.111115   -3.35    -34.58   
    44. D(B   0,B   2,B   1,B  11)    167.74  0.024609   -0.72    167.01   
    45. D(B   0,B   2,B   1,B   6)    151.93  0.074068   -2.24    149.68   
    46. D(B   4,B   2,B   1,B  11)    -15.42  0.061655   -1.83    -17.25   
    47. D(B  10,B   2,B   1,B  11)    -90.59 -0.027463    0.82    -89.76   
    48. D(B  10,B   4,B   2,B   1)   -112.62  0.005361   -0.14   -112.76   
    49. D(B  10,B   4,B   2,B   0)     64.03  0.043817   -1.31     62.72   
    50. D(B   3,B   4,B   2,B   1)     50.30  0.026143   -0.78     49.52   
    51. D(B   3,B   4,B   2,B  10)    162.92  0.020783   -0.64    162.28   
    52. D(B   3,B   4,B   2,B   0)   -133.05  0.064600   -1.95   -135.01   
    53. D(B   5,B   6,B   1,B   2)   -102.27  0.102777   -3.02   -105.30   
    54. D(B   8,B   6,B   1,B  11)   -119.85 -0.010911    0.28   -119.57   
    55. D(B  11,B   6,B   1,B   2)    167.72  0.082006   -2.37    165.34   
    56. D(B   5,B   6,B   1,B  11)     90.01  0.020771   -0.65     89.36   
    57. D(B   8,B   6,B   1,B   2)     47.86  0.071095   -2.09     45.77   
    58. D(B   9,B   6,B   1,B   2)     90.45  0.135465   -3.98     86.47   
    59. D(B   9,B   8,B   6,B   5)   -170.54  0.029570   -0.87   -171.42   
    60. D(B   9,B   8,B   6,B   1)     43.20  0.062269   -1.82     41.38   
    61. D(B   9,B   8,B   6,B  11)    -65.18  0.043932   -1.30    -66.47   
    62. D(B   7,B   9,B   8,B   6)   -100.76 -0.056639    1.59    -99.18   
    63. D(B   7,B   9,B   6,B   1)    -96.65  0.005500   -0.10    -96.75   
    64. D(B   7,B   9,B   6,B  11)   -147.25 -0.000533    0.07   -147.18   
    65. D(B   7,B   9,B   6,B   8)     73.83 -0.003546    0.13     73.97   
    66. D(B   8,B   9,B   6,B   5)    162.01 -0.048626    1.43    163.44   
    67. D(B   8,B   9,B   6,B   1)   -170.48  0.009046   -0.24   -170.72   
    68. D(B   8,B   9,B   6,B  11)    138.92  0.003013   -0.06    138.86   
    69. D(B   2,B  10,B   4,B   3)   -170.96 -0.028759    0.82   -170.15   
    70. D(B   4,B  10,B   2,B   1)    121.24  0.155473   -4.54    116.70   
    71. D(B   4,B  10,B   2,B   0)   -126.86  0.048826   -1.45   -128.31   
    72. D(B   1,B  11,B   6,B   8)    162.86  0.008163   -0.26    162.60   
    73. D(B   6,B  11,B   1,B   2)    -18.75  0.049509   -1.64    -20.39   
    74. D(B   1,B  11,B   6,B   9)     96.90  0.025147   -0.74     96.15   
    75. D(B   1,B  11,B   6,B   5)    -72.81  0.008826   -0.26    -73.07   
    ----------------------------------------------------------------------------

Geometry step timings:
Preparation and reading OPT file:      0.000 s ( 1.497 %)
Internal coordinates            :      0.000 s ( 2.214 %)
B/P matrices and projection     :      0.001 s (15.684 %)
Hessian update/contruction      :      0.000 s (14.375 %)
Making the step                 :      0.001 s (39.975 %)
Converting the step to Cartesian:      0.000 s ( 3.586 %)
Storing new data                :      0.000 s ( 1.684 %)
Checking convergence            :      0.000 s ( 1.777 %)
Final printing                  :      0.001 s (19.208 %)
Total time                      :      0.003 s

Time for energy+gradient        :      0.079 s
Time for complete geometry iter :      0.084 s

         *************************************************************
         *                GEOMETRY OPTIMIZATION CYCLE   3            *
         *************************************************************
---------------------------------
CARTESIAN COORDINATES (ANGSTROEM)
---------------------------------
  B    -2.693457   -1.012454   -1.463864
  B    -1.730350    1.590365   -0.181946
  B    -1.475113   -0.487768   -0.968793
  B     1.715772   -2.261833   -0.400570
[...]
 classical contributions        ...        0 min,  0.000 sec (  0.125%)
 integral evaluation            ...        0 min,  0.003 sec (  9.018%)
 iterations                     ...        0 min,  0.016 sec ( 54.555%)
 molecular gradient             ...        0 min,  0.006 sec ( 20.448%)
 printout                       ...        0 min,  0.004 sec ( 14.655%)

         :::::::::::::::::::::::::::::::::::::::::::::::::::::
         ::                     SUMMARY                     ::
         :::::::::::::::::::::::::::::::::::::::::::::::::::::
         :: total energy             -14.214050538454 Eh    ::
         :: gradient norm              0.038864114214 Eh/a0 ::
         :: HOMO-LUMO gap              0.743314382733 eV    ::
         ::.................................................::
         :: SCC energy               -14.477340482875 Eh    ::
         :: -> isotropic ES            0.091386828135 Eh    ::
         :: -> anisotropic ES          0.002101140947 Eh    ::
         :: -> anisotropic XC         -0.030679413601 Eh    ::
         :: -> dispersion             -0.011221144367 Eh    ::
         :: repulsion energy           0.263265091537 Eh    ::
         :: add. restraining           0.000000000000 Eh    ::
         :: total charge               0.000000000846 e     ::
         :::::::::::::::::::::::::::::::::::::::::::::::::::::


Property printout bound to 'properties.out'

           -------------------------------------------------
          | TOTAL ENERGY              -14.214050538454 Eh   |
          | GRADIENT NORM               0.038864114214 Eh/α |
          | HOMO-LUMO GAP               0.743314382733 eV   |
           -------------------------------------------------

------------------------------------------------------------------------
 * finished run on 2026/04/17 at 12:14:57.508     
------------------------------------------------------------------------
 total:
 * wall-time:     0 d,  0 h,  0 min,  0.043 sec
 *  cpu-time:     0 d,  0 h,  0 min,  0.043 sec
 * ratio c/w:     0.999 speedup
 SCF:
 * wall-time:     0 d,  0 h,  0 min,  0.030 sec
 *  cpu-time:     0 d,  0 h,  0 min,  0.030 sec
 * ratio c/w:     1.000 speedup


-------------------------   --------------------
FINAL SINGLE POINT ENERGY       -14.214050538450
-------------------------   --------------------


-------------
DIPOLE MOMENT
-------------
                                X             Y             Z
Total Dipole Moment    :      0.19300      -0.54600       0.00500
                        -----------------------------------------
Magnitude (a.u.)       :      0.57913
Magnitude (Debye)      :      1.47203


------------------
CARTESIAN GRADIENT
------------------

   1   B   :   -0.003736677    0.000329523   -0.006063690
   2   B   :   -0.002461219   -0.007189224   -0.009523942
   3   B   :    0.002444491    0.005766461    0.008647108
   4   B   :    0.010203017    0.005142467    0.002303379
   5   B   :   -0.003543776   -0.000174168    0.001763925
   6   B   :   -0.012804073    0.008920582   -0.005019414
   7   B   :    0.002775714   -0.003901868    0.006256595
   8   B   :   -0.006166347    0.000059259    0.007265439
   9   B   :    0.007659213    0.000210871   -0.009254343
  10   B   :   -0.007646610   -0.008286319   -0.009084126
  11   B   :    0.002471841   -0.003020007    0.001223575
  12   B   :    0.010804426    0.002142423    0.011485494

Difference to translation invariance:
           :    0.0000000000    0.0000000000    0.0000000000

Difference to rotation invariance:
           :    0.0000000332   -0.0000000063    0.0000000290

Norm of the Cartesian gradient     ...    0.0388641142
RMS gradient                       ...    0.0064773524
MAX gradient                       ...    0.0128040733
------------------------------------------------------------------------------
                         ORCA GEOMETRY RELAXATION STEP
------------------------------------------------------------------------------

Reading the OPT-File                    .... done
Getting information on internals        .... done
Copying old internal coords+grads       .... done
Making the new internal coordinates     .... (2022 redundants) done
Validating the new internal coordinates .... (2022 redundants) done
Calculating the B-matrix                .... done
Calculating the G,G- and P matrices     .... done
Transforming gradient to internals      .... done
Projecting the internal gradient        .... done
Number of atoms                         ....  12
Number of internal coordinates          ....  91
Current Energy                          ....   -14.214050538 Eh
Current gradient norm                   ....     0.038864114 Eh/bohr
Maximum allowed component of the step   ....  0.300
Current trust radius                    ....  0.467
Updating the Hessian (BFGS)             .... done
Forming the augmented Hessian           .... done
Diagonalizing the augmented Hessian     .... done
Last element of RFO vector              ....  0.915292233
Lowest eigenvalues of augmented Hessian:
 -0.003579647  0.002978051  0.003842326  0.003941157  0.004793294
Length of the computed step             ....  0.440067568
The final length of the internal step   ....  0.440067568
Converting the step to Cartesian space:
 Initial RMS(Int)=    0.0461316159
Transforming coordinates:
 Iter   0:  RMS(Cart)=    0.0451251468 RMS(Int)=    0.0444999622
 Iter   5:  RMS(Cart)=    0.0001128211 RMS(Int)=    0.0000778496
 Iter  10:  RMS(Cart)=    0.0000021862 RMS(Int)=    0.0000015076
done
Storing new coordinates                 .... done
The predicted energy change is          ....    -0.002136440
Previously predicted energy change      ....    -0.002906137
Actually observed energy change         ....    -0.000632885
Ratio of predicted to observed change   ....     0.217775254
New trust radius                        ....     0.311111111

                                .--------------------.
          ----------------------|Geometry convergence|-------------------------
          Item                value                   Tolerance       Converged
          ---------------------------------------------------------------------
          Energy change      -0.0006328846            0.0000010000      NO
          RMS gradient        0.0023906920            0.0000300000      NO
          MAX gradient        0.0099513834            0.0001000000      NO
          RMS step            0.0461316159            0.0006000000      NO
          MAX step            0.1331285319            0.0010000000      NO
          -------------------------------------------------------------------------
          ........................................................
          Max(Bonds)      0.0413      Max(Angles)    4.69
          Max(Dihed)        7.63      Max(Improp)    0.00
          ---------------------------------------------------------------------

The optimization has not yet converged - more geometry cycles are needed


    ---------------------------------------------------------------------------
                         Redundant Internal Coordinates
                            (Angstroem and degrees)

        Definition                    Value    dE/dq     Step     New-Value
    ----------------------------------------------------------------------------
     1. B(B   2,B   1)                1.5366 -0.004554  0.0184    1.5550   
     2. B(B   2,B   0)                1.5529  0.005364 -0.0093    1.5436   
     3. B(B   4,B   3)                1.5759  0.001051 -0.0029    1.5730   
     4. B(B   4,B   2)                1.8344  0.000049  0.0028    1.8372   
     5. B(B   6,B   5)                1.5488  0.007813 -0.0074    1.5413   
     6. B(B   7,B   3)                1.5463 -0.006304  0.0181    1.5644   
     7. B(B   8,B   3)                1.6128 -0.005130 -0.0030    1.6099   
     8. B(B   8,B   7)                1.6930 -0.003833  0.0006    1.6936   
     9. B(B   8,B   6)                1.6398  0.002978 -0.0311    1.6086   
    10. B(B   9,B   8)                1.6573 -0.005571  0.0413    1.6986   
    11. B(B   9,B   7)                1.5220 -0.005873  0.0151    1.5371   
    12. B(B   9,B   6)                1.5874  0.001830  0.0006    1.5880   
    13. B(B  10,B   4)                1.5374 -0.000124  0.0098    1.5472   
    14. B(B  10,B   0)                1.4795  0.003108  0.0024    1.4819   
    15. B(B  11,B   1)                1.5134  0.007813 -0.0138    1.4996   
    16. B(B  11,B   5)                1.4910 -0.009951  0.0040    1.4950   
    17. A(B   2,B   0,B  10)           97.66 -0.001281    1.30     98.96   
    18. L(B   2,B   1,B  11,B   5, 2) 184.20  0.000184    4.53    188.72   
    19. L(B   2,B   1,B  11,B   5, 1) 158.93  0.000999   -0.84    158.10   
    20. A(B   0,B   2,B   4)           81.34 -0.000516   -0.39     80.95   
    21. A(B   1,B   2,B   4)          120.18  0.000466   -1.03    119.15   
    22. A(B   0,B   2,B   1)          158.18  0.000125    0.64    158.82   
    23. A(B   7,B   3,B   8)           64.77  0.000895   -0.35     64.42   
    24. A(B   4,B   3,B   8)          128.77 -0.000889    2.68    131.45   
    25. A(B   4,B   3,B   7)          155.87 -0.000082   -1.42    154.45   
    26. A(B   2,B   4,B  10)           84.75  0.001735    0.54     85.29   
    27. A(B   3,B   4,B  10)          157.15 -0.000836   -0.41    156.74   
    28. A(B   2,B   4,B   3)          118.05 -0.000915   -0.04    118.01   
    29. A(B   6,B   5,B  11)          127.81 -0.003590    2.13    129.93   
    30. A(B   8,B   6,B   9)           61.78 -0.003084    2.37     64.15   
    31. A(B   5,B   6,B   9)          135.24 -0.000395    1.43    136.67   
    32. A(B   5,B   6,B   8)          122.11  0.002306   -2.01    120.10   
    33. A(B   3,B   7,B   9)          117.81 -0.000512    2.73    120.54   
    34. A(B   3,B   7,B   8)           59.52 -0.000107   -0.43     59.09   
    35. A(B   8,B   7,B   9)           61.79 -0.000294    1.40     63.19   
    36. A(B   6,B   8,B   7)          109.23  0.000722   -1.75    107.48   
    37. A(B   3,B   8,B   7)           55.71 -0.000788    0.78     56.49   
    38. A(B   7,B   8,B   9)           54.02 -0.000580   -0.23     53.79   
    39. A(B   6,B   8,B   9)           57.56  0.001154   -0.21     57.35   
    40. A(B   3,B   8,B   9)          106.91 -0.001411    2.13    109.04   
    41. A(B   3,B   8,B   6)          142.55  0.000103   -0.49    142.06   
    42. A(B   7,B   9,B   8)           64.18  0.000874   -1.16     63.02   
    43. A(B   6,B   9,B   8)           60.67  0.001930   -2.16     58.50   
    44. A(B   6,B   9,B   7)          121.82  0.002847   -4.69    117.13   
    45. A(B   0,B  10,B   4)           94.62 -0.000140   -1.35     93.27   
    46. A(B   1,B  11,B   5)          135.18  0.001096    0.59    135.77   
    47. D(B   1,B   2,B   0,B  10)   -161.66 -0.000660    2.15   -159.51   
    48. D(B   4,B   2,B   0,B  10)      9.34  0.000456   -0.76      8.59   
    49. D(B  10,B   4,B   2,B   0)     -8.95 -0.000620    0.75     -8.20   
    50. D(B  10,B   4,B   2,B   1)    167.20 -0.000142    0.24    167.44   
    51. D(B   3,B   4,B   2,B   0)    169.54 -0.000905    1.51    171.05   
    52. D(B   2,B   4,B   3,B   8)     50.66  0.001054   -0.32     50.34   
    53. D(B   2,B   4,B   3,B   7)    -66.45  0.000961   -3.19    -69.65   
    54. D(B  10,B   4,B   3,B   7)    109.65  0.000352   -1.03    108.62   
    55. D(B  10,B   4,B   3,B   8)   -133.23  0.000445    1.84   -131.39   
    56. D(B   3,B   4,B   2,B   1)    -14.32 -0.000427    1.01    -13.31   
    57. D(B   9,B   6,B   5,B  11)     59.10 -0.001442    3.64     62.75   
    58. D(B   8,B   6,B   5,B  11)    -21.69  0.001240   -0.79    -22.48   
    59. D(B   9,B   7,B   3,B   8)    -21.47 -0.000266    3.46    -18.01   
    60. D(B   8,B   7,B   3,B   4)    129.90 -0.000293    4.17    134.07   
    61. D(B   9,B   7,B   3,B   4)    108.43 -0.000559    7.63    116.06   
    62. D(B   9,B   8,B   7,B   3)   -158.44  0.000437   -4.55   -163.00   
    63. D(B   6,B   8,B   7,B   9)     17.20 -0.000322    4.39     21.59   
    64. D(B   3,B   8,B   7,B   9)    158.44 -0.000437    4.55    163.00   
    65. D(B   9,B   8,B   6,B   5)    127.92 -0.002078    4.94    132.87   
    66. D(B   7,B   8,B   6,B   9)    -16.47  0.000649   -4.26    -20.73   
    67. D(B   7,B   8,B   6,B   5)    111.45 -0.001429    0.69    112.14   
    68. D(B   3,B   8,B   6,B   9)    -74.75  0.001070   -3.83    -78.58   
    69. D(B   3,B   8,B   6,B   5)     53.18 -0.001008    1.11     54.29   
    70. D(B   9,B   8,B   3,B   7)     18.11  0.000083   -3.50     14.61   
    71. D(B   7,B   8,B   3,B   4)   -156.28 -0.000126    0.96   -155.32   
    72. D(B   6,B   8,B   7,B   3)   -141.25  0.000115   -0.16   -141.41   
    73. D(B   6,B   8,B   3,B   7)     76.43  0.000104   -1.48     74.95   
    74. D(B   6,B   8,B   3,B   4)    -79.86 -0.000022   -0.52    -80.37   
    75. D(B   9,B   8,B   3,B   4)   -138.18 -0.000043   -2.53   -140.71   
    76. D(B   7,B   9,B   6,B   8)     20.52  0.000061    4.07     24.58   
    77. D(B   7,B   9,B   6,B   5)    -87.88 -0.000620    5.65    -82.23   
    78. D(B   7,B   9,B   8,B   3)    -18.50 -0.000046    3.41    -15.09   
    79. D(B   6,B   9,B   8,B   7)    160.68  0.000710   -5.33    155.35   
    80. D(B   6,B   9,B   8,B   3)    142.18  0.000664   -1.92    140.26   
    81. D(B   8,B   9,B   7,B   3)     20.98  0.000296   -3.55     17.42   
    82. D(B   6,B   9,B   7,B   8)    -19.84 -0.000298   -3.81    -23.65   
    83. D(B   6,B   9,B   7,B   3)      1.14 -0.000002   -7.36     -6.23   
    84. D(B   7,B   9,B   8,B   6)   -160.68 -0.000710    5.33   -155.35   
    85. D(B   8,B   9,B   6,B   5)   -108.40 -0.000681    1.58   -106.81   
    86. D(B   0,B  10,B   4,B   3)   -167.23  0.001308   -2.85   -170.08   
    87. D(B   0,B  10,B   4,B   2)      9.32  0.000748   -0.93      8.38   
    88. D(B   4,B  10,B   0,B   2)    -11.08 -0.000536    1.01    -10.07   
    89. D(B   1,B  11,B   5,B   6)     14.20  0.000090   -1.21     12.99   
    90. D(B   5,B  11,B   2,B   4)     -7.10 -0.000955    2.34     -4.76   
    91. D(B   5,B  11,B   2,B   0)    141.98  0.000299   -0.98    141.00   
    ----------------------------------------------------------------------------

Geometry step timings:
Preparation and reading OPT file:      0.000 s ( 1.231 %)
Internal coordinates            :      0.000 s ( 1.395 %)
B/P matrices and projection     :      0.001 s (20.973 %)
Hessian update/contruction      :      0.001 s (19.141 %)
Making the step                 :      0.001 s (25.048 %)
Converting the step to Cartesian:      0.000 s ( 6.699 %)
Storing new data                :      0.000 s ( 1.832 %)
Checking convergence            :      0.000 s ( 1.805 %)
Final printing                  :      0.001 s (21.821 %)
Total time                      :      0.004 s

Time for energy+gradient        :      0.065 s
Time for complete geometry iter :      0.071 s




    ----------------------------------------------------------------------------
                                  WARNING !!!
       The optimization did not converge but reached the maximum number of
       optimization cycles.
       Please check your results very carefully.
    ----------------------------------------------------------------------------



--------------------------------
SUGGESTED CITATIONS FOR THIS RUN
--------------------------------

Below you find a list of papers that are relevant to this ORCA run
We neither can nor want to force you to cite these papers, but we appreciate if you do
You receive ORCA, which is the product of decades of hard work by many enthusiastic individuals, for free
The only thing we kindly ask in return is that you cite our papers,
We deeply appreciate it, if you show your appreciation for ORCA by not just citing the generic ORCA reference.

Please note that relegating all ORCA citations to the supporting information does *not* help us.
SI sections are not indexed - citations you put there will not count into any citation statistics
But we need these citations in order to attract the funding resources that allow us to do what we are doing

Therefore, if you are a happy ORCA user, please consider citing a few of the papers listed below in the main body of your paper

In addition to the list printed below, the program has created the file random_d2.10_006_m3.bibtex that contains the list in bibtex format
You can import this file easily into all common literature databanks and citation aid programs

It goes without saying that in many instances, there are alternative algorithms to achieve similar
results as the ones you have gotten from ORCA. It is, of course, also the case that in some instances
ORCA just re-implements algorithms worked out by others. We are fully aware of that and we are also
fully appreciative of our colleagues work. Hence this citation list should not be read as indicating
that the listed papers, which are focused on our own work, are the only ones worth citing. It simply
meant to make it easier for users to cite ORCA specific papers. It is not a substitute for doing your
own literature research and citing the relevant literature in a scientifically appropriate manner.

List of essential papers. We consider these as the minimum necessary citations

  1. Bannwarth, C.; Ehlert, S.; Grimme, S.
     GFN2-xTB—An Accurate and Broadly Parametrized Self-Consistent Tight-Binding Quantum Chemical Method with Multipole Electrostatics and Density-Dependent Dispersion Contributions
     J. Chem. Theory Comput. 2019 15(3), 1652-1671
     doi.org/10.1021/acs.jctc.8b01176
  2. Neese, F.
     Software update: the ORCA program system, version 6.0
     WIRES Comput. Molec. Sci. 2025 15(1), e70019
     doi.org/10.1002/wcms.70019

List of papers to cite with high priority. The work reported in these papers was absolutely
necessary for this run to complete.
Our perspective: the developers of density functionals and basis sets usually get cited in chemistry papers
Good! But without the algorithms to do something with them, the functionals or basis sets would not do anything.
Hence, in our opinion, the algorithm design and method developments papers are equally worthy of getting cited

  1. Bannwarth, C.; Caldeweyher, E.; Ehlert, S.; Hansen, A.; Pracht, P.; Seibert, J.; Spicher, S.; Grimme, S.
     Extended tight-binding quantum chemistry methods
     WIRES Comput. Molec. Sci. 2020 11(2), e1493
     doi.org/10.1002/wcms.1493

List of suggested additional citations. These are papers that are important in the 'surrounding' of 
of this run, or papers that preceded the highly important papers. If you like your results we are grateful for a citation.

  1. Neese, F.
     The ORCA program system
     WIRES Comput. Molec. Sci. 2012 2(1), 73-78
     doi.org/10.1002/wcms.81
  2. Neese, F.
     Software update: the ORCA program system, version 4.0
     WIRES Comput. Molec. Sci. 2018 8(1), 1-6
     doi.org/10.1002/wcms.1327
  3. Neese, F.; Wennmohs, F.; Becker, U.; Riplinger, C.
     The ORCA quantum chemistry program package
     J. Chem. Phys. 2020 152(22), 224108
     doi.org/10.1063/5.0004608
  4. Neese, F.
     Software update: The ORCA program system—Version 5.0
     WIRES Comput. Molec. Sci. 2022 12(1), e1606
     doi.org/10.1002/wcms.1606

List of optional additional citations

  1. Neese, F.
     Approximate second-order SCF convergence for spin unrestricted wavefunctions
     Chem. Phys. Lett. 2000 325(1-3), 93-98
     doi.org/10.1016/s0009-2614(00)00662-x

Timings for individual modules:

Sum of individual times          ...        3.365 sec (=   0.056 min)
Geometry relaxation              ...        0.324 sec (=   0.005 min)   9.6 %
XTB module                       ...        3.041 sec (=   0.051 min)  90.4 %
                             ****ORCA TERMINATED NORMALLY****
TOTAL RUN TIME: 0 days 0 hours 0 minutes 3 seconds 871 msec
