
                                 *****************
                                 * O   R   C   A *
                                 *****************

                                            #,                                       
                                            ###                                      
                                            ####                                     
                                            #####                                    
                                            ######                                   
                                           ########,                                 
                                     ,,################,,,,,                         
                               ,,#################################,,                 
                          ,,##########################################,,             
                       ,#########################################, ''#####,          
                    ,#############################################,,   '####,        
                  ,##################################################,,,,####,       
                ,###########''''           ''''###############################       
              ,#####''   ,,,,##########,,,,          '''####'''          '####       
            ,##' ,,,,###########################,,,                        '##       
           ' ,,###''''                  '''############,,,                           
         ,,##''                                '''############,,,,        ,,,,,,###''
      ,#''                                            '''#######################'''  
     '                                                          ''''####''''         
             ,#######,   #######,   ,#######,      ##                                
            ,#'     '#,  ##    ##  ,#'     '#,    #''#        ,####,    ,#,          
            ##       ##  ##   ,#'  ##            #'  '#       #'       ,# #          
            ##       ##  #######   ##           ,######,      #####,      #          
            '#,     ,#'  ##    ##  '#,     ,#' ,#      #,     #,   #      #          
             '#######'   ##     ##  '#######'  #'      '#     '####' #    #          



                #########################################################
                #                        -***-                          #
                #          Department of theory and spectroscopy        #
                #                                                       #
                #                      Frank Neese                      #
                #                                                       #
                #     Directorship, Architecture, Infrastructure        #
                #                    SHARK, DRIVERS                     #
                #        Core code/Algorithms in most modules           #
                #                                                       #
                #        Max Planck Institute fuer Kohlenforschung      #
                #                Kaiser Wilhelm Platz 1                 #
                #                 D-45470 Muelheim/Ruhr                 #
                #                      Germany                          #
                #                                                       #
                #                  All rights reserved                  #
                #                        -***-                          #
                #########################################################


                         Program Version 6.1.1  -  RELEASE   -
                                (GIT: $487d211c$)
                          ($2025-11-21 10:33:24 +0100$)
                                                                         
                                  - NO-DMRG VERSION -                    
                                                                         


 With contributions from (in alphabetic order):
[Max-Planck-Institut fuer Kohlenforschung]                               
  Daniel Aravena         : Magnetic Suceptibility                        
  Michael Atanasov       : Ab Initio Ligand Field Theory (pilot matlab implementation)
  Alexander A. Auer      : GIAO ZORA, VPT2 properties, NMR spectrum      
  Ute Becker             : All parallelization in ORCA, NUMFREQ, NUMCALC 
  Giovanni Bistoni       : ED, misc. LED, open-shell LED, HFLD           
  Dmytro Bykov           : pre 5.0 version of the SCF Hessian            
  Marcos Casanova-Páez   : Triplet and SCS-CIS(D). UHF-(DLPNO)-IP/EA/STEOM-CCSD. UHF-CVS-IP/STEOM-CCSD   
  Vijay G. Chilkuri      : MRCI spin determinant printing, contributions to CSF-ICE 
  Pauline Colinet        : FMM embedding                                 
  Dipayan Datta          : RHF DLPNO-CCSD density                        
  Achintya Kumar Dutta   : EOM-CC, STEOM-CC                              
  Nicolas Foglia         : Exact transition moments, OPA infrastructure, MCD improvements    
  Dmitry Ganyushin       : Spin-Orbit,Spin-Spin,Magnetic field MRCI      
  Miquel Garcia-Rates    : C-PCM and meta-GGA Hessian, CCSD/C-PCM, Gaussian charge scheme 
  Tiago L. C. Gouveia    : GS-ROHF, GS-ROCIS                             
  Yang Guo               : DLPNO-NEVPT2, F12-NEVPT2, CIM, IAO-localization        
  Andreas Hansen         : Spin unrestricted coupled pair/coupled cluster methods 
  Ingolf Harden          : AUTO-CI MPn and infrastructure                
  Benjamin Helmich-Paris : MC-RPA, TRAH-(SCF,CASSCF), AVAS, COSX integrals, SCF dyn. polar., MC-PDFT, srDFT 
  Lee Huntington         : MR-EOM, pCC                                   
  Robert Izsak           : Overlap fitted RIJCOSX, COSX-SCS-MP3, EOM     
  Riya Kayal             : Wick's Theorem for AUTO-CI, AUTO-CI UHF-CCSDT 
  Emily Kempfer          : AUTO-CI RHF CISDT and CCSDT, approximate NEVPT4
  Christian Kollmar      : KDIIS, OOCD, Brueckner-CCSD(T), CCSD density, CASPT2, CASPT2-K, improved NEVPT2 
  Axel Koslowski         : Symmetry handling                             
  Simone Kossmann        : meta-GGA functionals, TD-DFT gradient, OOMP2, (MP2 Hessian; deprecated post 5.0) 
  Lucas Lang             : DCDCAS, Hyperfine gauge corrections, ICE-SOC+SSC
  Marvin Lechner         : AUTO-CI (C++ implementation), FIC-MRCC        
  Spencer Leger          : CASSCF response                               
  Dagmar Lenk            : GEPOL surface, SMD, ORCA-2-JSON               
  Dimitrios Liakos       : Extrapolation schemes; Compound Job, Property file
  Dimitrios Manganas     : Further ROCIS development; embedding schemes. LFT, Crystal Embedding 
  Dimitrios Pantazis     : SARC Basis sets                               
  Anastasios Papadopoulos: AUTO-CI, single reference methods and gradients 
  Taras Petrenko         : pre 6.0 DFT Hessian and TD-DFT gradient,  ECA, NRVS 
  Petra Pikulova         : Analytic Raman intensities                    
  Peter Pinski           : DLPNO-MP2, DLPNO-MP2 Gradient                 
  Shashank Vittal Rao    : ES-AILFT, MagRelax                            
  Christoph Reimann      : Effective Core Potentials                     
  Marius Retegan         : Local ZFS, SOC                                
  Christoph Riplinger    : Optimizer, TS searches, QM/MM, DLPNO-CCSD(T), (RO)-DLPNO pert. Triples 
  Michael Roemelt        : Original ROCIS implementation, recursive CI coupling coefficients
  Masaaki Saitow         : Open-shell DLPNO-CCSD energy and density      
  Barbara Sandhoefer     : DKH picture change effects                    
  Yorick L. A. Schmerwitz: GMF and freeze-and-release deltaSCF, NEB S-IDPP initial path                    
  Kantharuban Sivalingam : CASSCF convergence/infrastructure, NEVPT2, NEVPT3, NEVPT4(SD), FIC-MRCI and CEPA variants
  Bernardo de Souza      : ESD, SOC TD-DFT                               
  Georgi L. Stoychev     : AutoAux, RI-MP2 NMR, DLPNO-MP2 response, X2C  
  Van Anh Tran           : RI-MP2 g-tensors                              
  Willem Van den Heuvel  : Paramagnetic NMR                              
  Zikuan Wang            : NOTCH, Electric field optimization            
  Frank Wennmohs         : Technical directorship and infrastructure     
  Hang Xu                : AUTO-CI-Response properties                   
                                                                         
[FACCTs GmbH]                                                            
  Markus Bursch, Nicolas Foglia, Miquel Garcia-Rates, Ingolf Harden, Hagen Neugebauer, Anastasios Papadopoulos, 
  Christoph Riplinger, Bernardo de Souza, Georgi L. Stoychev                                                    
                                                                 
  APM, various basis sets, CI-OPT, improved COSX, DLPNO-Multilevel,           
  DOCKER, DRACO, updates on ESD, Fragmentator, GOAT, IRC, LR-CPCM, L-BFGS, MBIS, meta-GGA TD-DFT gradient, ML-optimized integration grids, 
  MM, NACMEs, nearIR, NEB, NEB-TS, NL-DFT gradient (VV10), 2- and 3-layer-ONIOM, interface openCOSMO-RS, QMMM,   
  Crystal-QMMM, RESP, rigid body optimization, SF, symmetry and pop. for TD-DFT, various functionals, SOLVATOR                                   
                                                                         
[Other institutions]                                                     
  V. Asgeirsson          : NEB                                           
  Christoph Bannwarth    : sTDA-DFT, sTD-DFT, PBEh-3c, B97-3c, D3        
  Giovanni Bistoni       : ETS/NOCV, ADLD/ADEX, COVALED                  
  Martin Brehm           : Molecular dynamics                            
  Ronald Cardenas        : ETS/NOCV                                      
  Martina Colucci        : COVALED                                       
  Sebastian Ehlert       : rSCAN, r2SCAN, r2SCAN-3c, D4, dhf basis sets  
  Marvin Friede          : D4 for Fr, Ra, Ac-Lr                          
  Lars Goerigk           : TD-DFT with DH, B97 family of functionals     
  Stefan Grimme          : VdW corrections, initial TS optimization, DFT functionals, gCP, sTDA/sTD-DF 
  Waldemar Hujo          : DFT-NL                                        
  H. Jonsson             : NEB                                           
  Holger Kruse           : gCP                                           
  Marcel Mueller         : wB97X-3c, vDZP basis set                      
  Hagen Neugebauer       : wr2SCAN, Native XTB                           
  Gianluca Regni         : ADLD/ADEX                                     
  Tobias Risthaus        : pre 6.0 range-separated hybrid DFT and stability analysis
  Lukas Wittmann         : regularized MP2, r2SCAN double-hybrids, wr2SCAN        
                                                                         
We gratefully acknowledge several colleagues who have allowed us to      
interface, adapt or use parts of their codes:                            
  Ed Valeev, F. Pavosevic, A. Kumar             : LibInt (2-el integral package), F12 methods 
  Garnet Chan, S. Sharma, J. Yang, R. Olivares  : DMRG                   
  Ulf Ekstrom                                   : XCFun DFT Library      
  Mihaly Kallay                                 : mrcc  (arbitrary order and MRCC methods)
  Frank Weinhold                                : gennbo (NPA and NBO analysis)           
  Simon Mueller                                 : openCOSMO-RS                            
  Christopher J. Cramer and Donald G. Truhlar   : smd solvation model                     
  S Lehtola, MJT Oliveira, MAL Marques          : LibXC Library                           
  Liviu Ungur et al                             : ANISO software                          


 Your calculation uses the libint2 library for the computation of 2-el integrals
 For citations please refer to: http://libint.valeyev.net

 Your ORCA version has been built with support for libXC version: 7.0.0
 For citations please refer to: https://libxc.gitlab.io

 This ORCA versions uses:
   CBLAS   interface :  Fast vector & matrix operations
   LAPACKE interface :  Fast linear algebra routines
   SCALAPACK package :  Parallel linear algebra routines
   Shared memory     :  Shared parallel matrices
   BLAS/LAPACK       :  OpenBLAS 0.3.29  USE64BITINT DYNAMIC_ARCH NO_AFFINITY Zen SINGLE_THREADED
        Core in use  :  Zen
   Copyright (c) 2011-2014, The OpenBLAS Project


  ***********************************
  * Starting time: Fri Apr 17 12:14:35 2026
  * Host name:     vmi3233575
  * Process ID:    337005
  * Working dir.:  /root/orca_b12_vps_pack/jobs/01_xtb/mult_3
  ***********************************

NOTE: MaxCore=500 MB was set to SCF,MP2,MDCI,CIPSI,MRCI,RASCI and CIS
      => If you want to overwrite this, your respective input block should be placed after the MaxCore statement


***************************************
The coordinates will be read from file: ../../../starts/random_d1.50_010.xyz
***************************************


Your calculation utilizes the semiempirical GFN2-xTB method
Please cite in your paper:
Bannwarth, C.; Ehlert S.; Grimme, S. J. Chem. Theory Comput. 2019, 15, 1652.
   

================================================================================

================================================================================
                                        WARNINGS
                       Please study these warnings very carefully!
================================================================================


WARNING: Geometry Optimization
  ===> : Switching off AutoStart
         For restart on a previous wavefunction, please use MOREAD

WARNING: Found dipole moment calculation with XTB calculation
  ===> : Switching off dipole moment calculation

Environment variable XTBEXE for xtb has been set!

================================================================================
                                       INPUT FILE
================================================================================
NAME = random_d1.50_010_m3.inp
|  1> ! GFN2-xTB TightSCF TightOpt
|  2> 
|  3> %pal
|  4>   nprocs 1
|  5> end
|  6> 
|  7> %maxcore 500
|  8> 
|  9> * xyzfile 0 3 ../../../starts/random_d1.50_010.xyz
| 10> 
| 11>                          ****END OF INPUT****
================================================================================

                       *****************************
                       * Geometry Optimization Run *
                       *****************************

Geometry optimization settings:
Update method            Update   .... BFGS
Choice of coordinates    CoordSys .... (2022) Redundant Internals
Initial Hessian          InHess   .... Almloef's Model
Max. no of cycles        MaxIter  .... 50

Convergence Tolerances:
Energy Change            TolE     ....  1.0000e-06 Eh
Max. Gradient            TolMAXG  ....  1.0000e-04 Eh/bohr
RMS Gradient             TolRMSG  ....  3.0000e-05 Eh/bohr
Max. Displacement        TolMAXD  ....  1.0000e-03 bohr
RMS Displacement         TolRMSD  ....  6.0000e-04 bohr
Strict Convergence                .... False

------------------------------------------------------------------------------
                        ORCA OPTIMIZATION COORDINATE SETUP
------------------------------------------------------------------------------

The optimization will be done in redundant internal coordinates (2022)
Making redundant internal coordinates   ...  (2022 redundants) done
Evaluating the initial hessian          ...  (Almloef) done
Evaluating the coordinates              ...  done
Calculating the B-matrix                .... done
Calculating the G-matrix                .... done
The number of degrees of freedom        ....   72

    -----------------------------------------------------------------
                    Redundant Internal Coordinates


    -----------------------------------------------------------------
         Definition                    Initial Value    Approx d2E/dq
    -----------------------------------------------------------------
      1. B(B   3,B   0)                  1.3360         1.021999   
      2. B(B   4,B   2)                  1.9361         0.112758   
      3. B(B   6,B   5)                  1.6953         0.273077   
      4. B(B   7,B   5)                  1.9202         0.119534   
      5. B(B   7,B   4)                  1.9739         0.098120   
      6. B(B   8,B   1)                  1.3814         0.864999   
      7. B(B   8,B   0)                  1.9156         0.121545   
      8. B(B   8,B   4)                  1.7190         0.250279   
      9. B(B   8,B   2)                  1.3979         0.814181   
     10. B(B   9,B   6)                  1.5209         0.518319   
     11. B(B   9,B   5)                  2.0808         0.066260   
     12. B(B  10,B   1)                  1.7649         0.211498   
     13. B(B  11,B   8)                  1.8455         0.157252   
     14. B(B  11,B   2)                  1.4036         0.797419   
     15. A(B   3,B   0,B   8)           96.3816         0.367829   
     16. A(B   8,B   1,B  10)           97.8261         0.393363   
     17. A(B   8,B   2,B  11)           82.4107         0.494413   
     18. A(B   4,B   2,B   8)           59.4973         0.349384   
     19. A(B   4,B   2,B  11)          118.6941         0.348161   
     20. A(B   7,B   4,B   8)          106.3326         0.282194   
     21. A(B   2,B   4,B   8)           44.4803         0.288372   
     22. A(B   2,B   4,B   7)          142.5953         0.250294   
     23. A(B   6,B   5,B   9)           46.1147         0.269290   
     24. A(B   7,B   5,B   9)          121.4144         0.238542   
     25. A(B   6,B   5,B   7)          115.4647         0.295048   
     26. A(B   5,B   6,B   9)           80.4295         0.376190   
     27. A(B   4,B   7,B   5)          115.4266         0.252439   
     28. A(B   0,B   8,B   2)          117.9776         0.353845   
     29. A(B   2,B   8,B   4)           76.0223         0.400882   
     30. A(B   1,B   8,B   4)          113.6760         0.405185   
     31. A(B   4,B   8,B  11)          108.0582         0.303960   
     32. A(B   0,B   8,B   4)           95.5233         0.291787   
     33. A(B   0,B   8,B  11)           78.7922         0.271540   
     34. A(B   0,B   8,B   1)          125.2958         0.357499   
     35. A(B   1,B   8,B  11)          127.5581         0.373617   
     36. A(B   2,B   8,B  11)           48.9269         0.369743   
     37. A(B   1,B   8,B   2)          113.5987         0.501946   
     38. A(B   5,B   9,B   6)           53.4558         0.297432   
     39. A(B   2,B  11,B   8)           48.6624         0.368424   
     40. D(B   7,B   4,B   2,B  11)   -108.0459         0.010000   
     41. D(B   8,B   4,B   2,B  11)    -60.1855         0.010000   
     42. D(B   7,B   4,B   2,B   8)    -47.8604         0.010000   
     43. D(B   9,B   6,B   5,B   7)   -110.0578         0.010000   
     44. D(B   5,B   7,B   4,B   2)     92.2775         0.010000   
     45. D(B   4,B   7,B   5,B   9)    -42.2510         0.010000   
     46. D(B   5,B   7,B   4,B   8)     59.4985         0.010000   
     47. D(B   4,B   7,B   5,B   6)     10.2437         0.010000   
     48. D(B  11,B   8,B   4,B   2)     37.5046         0.010000   
     49. D(B   1,B   8,B   4,B   2)   -109.9572         0.010000   
     50. D(B   0,B   8,B   4,B   7)    -90.5011         0.010000   
     51. D(B   0,B   8,B   1,B  10)    -36.0925         0.039102   
     52. D(B   2,B   8,B   1,B  10)    123.3804         0.039102   
     53. D(B   4,B   8,B   1,B  10)   -152.1435         0.039102   
     54. D(B  11,B   8,B   0,B   3)     92.6371         0.010000   
     55. D(B   4,B   8,B   0,B   3)    -14.7198         0.010000   
     56. D(B   1,B   8,B   2,B  11)   -120.1081         0.036909   
     57. D(B   2,B   8,B   0,B   3)     62.3704         0.010000   
     58. D(B   1,B   8,B   2,B   4)    110.0500         0.036909   
     59. D(B   4,B   8,B   2,B  11)    129.8418         0.036909   
     60. D(B  11,B   8,B   2,B   4)   -129.8418         0.036909   
     61. D(B   0,B   8,B   4,B   2)    117.4921         0.010000   
     62. D(B   0,B   8,B   2,B  11)     40.9828         0.036909   
     63. D(B   1,B   8,B   0,B   3)   -138.9664         0.010000   
     64. D(B   1,B   8,B   4,B   7)     42.0497         0.010000   
     65. D(B   2,B   8,B   4,B   7)    152.0069         0.010000   
     66. D(B   0,B   8,B   2,B   4)    -88.8591         0.036909   
     67. D(B  11,B   8,B   1,B  10)     68.0273         0.039102   
     68. D(B   6,B   9,B   5,B   7)     96.4066         0.010000   
     69. D(B   2,B  11,B   8,B   0)   -143.8113         0.010000   
     70. D(B   8,B  11,B   2,B   4)     48.9529         0.027352   
     71. D(B   2,B  11,B   8,B   4)    -51.5991         0.010000   
     72. D(B   2,B  11,B   8,B   1)     89.9838         0.010000   
    -----------------------------------------------------------------

Number of atoms                         .... 12
Number of degrees of freedom            .... 72


         *************************************************************
         *                GEOMETRY OPTIMIZATION CYCLE   1            *
         *************************************************************
---------------------------------
CARTESIAN COORDINATES (ANGSTROEM)
---------------------------------
  B    -1.390257    0.134871    0.366790
  B     1.009581   -1.560551    0.316157
  B     0.714188   -0.293743    2.244047
  B    -1.111023    1.428414    0.550632
  B     1.120928    0.984203    0.847697
  B     0.561241    1.049362   -2.395878
  B    -1.060200    1.135552   -1.908490
  B     1.854655    1.130300   -0.978961
  B     0.316133   -0.532808    0.925484
  B    -1.007451   -0.317128   -2.355644
  B    -0.377487   -2.560665   -0.120360
  B    -0.630308   -0.597805    2.508526

----------------------------
CARTESIAN COORDINATES (A.U.)
----------------------------
  NO LB    ZA    FRAG    MASS        X           Y           Z
   0 B   5.0000    0    10.810   -2.627205    0.254868    0.693132
   1 B   5.0000    0    10.810    1.907831   -2.949013    0.597451
   2 B   5.0000    0    10.810    1.349619   -0.555094    4.240634
   3 B   5.0000    0    10.810   -2.099528    2.699311    1.040544
   4 B   5.0000    0    10.810    2.118247    1.859874    1.601914
   5 B   5.0000    0    10.810    1.060593    1.983007   -4.527553
   6 B   5.0000    0    10.810   -2.003487    2.145883   -3.606523
   7 B   5.0000    0    10.810    3.504790    2.135957   -1.849969
   8 B   5.0000    0    10.810    0.597405   -1.006862    1.748911
   9 B   5.0000    0    10.810   -1.903807   -0.599286   -4.451522
  10 B   5.0000    0    10.810   -0.713348   -4.838956   -0.227448
  11 B   5.0000    0    10.810   -1.191110   -1.129688    4.740428

      -----------------------------------------------------------      
     |                   =====================                   |     
     |                           x T B                           |     
     |                   =====================                   |     
     |                         S. Grimme                         |     
     |          Mulliken Center for Theoretical Chemistry        |     
     |                    University of Bonn                     |     
      -----------------------------------------------------------      

   * xtb version 6.6.1 (unknown) compiled by 'builduser@buildhost' on 2023-08-07

   xtb is free software: you can redistribute it and/or modify it under
   the terms of the GNU Lesser General Public License as published by
   the Free Software Foundation, either version 3 of the License, or
   (at your option) any later version.
   
   xtb is distributed in the hope that it will be useful,
   but WITHOUT ANY WARRANTY; without even the implied warranty of
   MERCHANTABILITY or FITNESS FOR A PARTICULAR PURPOSE.  See the
   GNU Lesser General Public License for more details.
   
   Cite this work as:
   * C. Bannwarth, E. Caldeweyher, S. Ehlert, A. Hansen, P. Pracht,
     J. Seibert, S. Spicher, S. Grimme, WIREs Comput. Mol. Sci., 2020, 11,
     e01493. DOI: 10.1002/wcms.1493
   
   for GFN2-xTB:
   * C. Bannwarth, S. Ehlert and S. Grimme., J. Chem. Theory Comput., 2019,
     15, 1652-1671. DOI: 10.1021/acs.jctc.8b01176
   for GFN1-xTB:
   * S. Grimme, C. Bannwarth, P. Shushkov, J. Chem. Theory Comput., 2017,
     13, 1989-2009. DOI: 10.1021/acs.jctc.7b00118
   for GFN0-xTB:
   * P. Pracht, E. Caldeweyher, S. Ehlert, S. Grimme, ChemRxiv, 2019, preprint.
     DOI: 10.26434/chemrxiv.8326202.v1
   for GFN-FF:
   * S. Spicher and S. Grimme, Angew. Chem. Int. Ed., 2020, 59, 15665-15673.
     DOI: 10.1002/anie.202004239
   
   for ALPB and GBSA implicit solvation:
   * S. Ehlert, M. Stahn, S. Spicher, S. Grimme, J. Chem. Theory Comput.,
     2021, 17, 4250-4261. DOI: 10.1021/acs.jctc.1c00471
   
   for DFT-D4:
   * E. Caldeweyher, C. Bannwarth and S. Grimme, J. Chem. Phys., 2017,
     147, 034112. DOI: 10.1063/1.4993215
   * E. Caldeweyher, S. Ehlert, A. Hansen, H. Neugebauer, S. Spicher,
     C. Bannwarth and S. Grimme, J. Chem. Phys., 2019, 150, 154122.
     DOI: 10.1063/1.5090222
   * E. Caldeweyher, J.-M. Mewes, S. Ehlert and S. Grimme, Phys. Chem. Chem. Phys.
     2020, 22, 8499-8512. DOI: 10.1039/D0CP00502A
   
   for sTDA-xTB:
   * S. Grimme and C. Bannwarth, J. Chem. Phys., 2016, 145, 054103.
     DOI: 10.1063/1.4959605
   
   in the mass-spec context:
   * V. Asgeirsson, C. Bauer and S. Grimme, Chem. Sci., 2017, 8, 4879.
     DOI: 10.1039/c7sc00601b
   * J. Koopman and S. Grimme, ACS Omega 2019, 4, 12, 15120-15133.
     DOI: 10.1021/acsomega.9b02011
   
   for metadynamics refer to:
   * S. Grimme, J. Chem. Theory Comput., 2019, 155, 2847-2862
     DOI: 10.1021/acs.jctc.9b00143
   
   for SPH calculations refer to:
   * S. Spicher and S. Grimme, J. Chem. Theory Comput., 2021, 17, 1701-1714
     DOI: 10.1021/acs.jctc.0c01306
   
   with help from (in alphabetical order)
   P. Atkinson, C. Bannwarth, F. Bohle, G. Brandenburg, E. Caldeweyher
   M. Checinski, S. Dohm, S. Ehlert, S. Ehrlich, I. Gerasimov, C. Hölzer
   A. Katbashev, J. Koopman, C. Lavigne, S. Lehtola, F. März, M. Müller,
   F. Musil, H. Neugebauer, J. Pisarek, C. Plett, P. Pracht, F. Pultar,
   J. Seibert, P. Shushkov, S. Spicher, M. Stahn, M. Steiner, T. Strunk,
   J. Stückrath, T. Rose, and J. Unsleber
   
 * started run on 2026/04/17 at 12:14:35.481     

           -------------------------------------------------
          |                Calculation Setup                |
           -------------------------------------------------

          program call               : /usr/bin/xtb random_d1.50_010_m3_XTB.xyz --grad -c 0 -u 2 -P 1 --namespace random_d1.50_010_m3 --input random_d1.50_010_m3_XTB.input.tmp --acc 0.200000
          calculation namespace      : random_d1.50_010_m3
          coordinate file            : random_d1.50_010_m3_XTB.xyz
          omp threads                :                     1

   ID    Z sym.   atoms
    1    5 B      1-12

molecular fragmentation (1/2 indicates fragments):
111112211211
# atoms in fragment 1/2:     9     3
 fragment masses (1/2) :       97.30       32.43
CMA distance (Bohr)    :   5.946
constraining FC (au)   :  0.0500

           -------------------------------------------------
          |                 G F N 2 - x T B                 |
           -------------------------------------------------

        Reference                      10.1021/acs.jctc.8b01176
      * Hamiltonian:
        H0-scaling (s, p, d)           1.850000    2.230000    2.230000
        zeta-weighting                 0.500000
      * Dispersion:
        s8                             2.700000
        a1                             0.520000
        a2                             5.000000
        s9                             5.000000
      * Repulsion:
        kExp                           1.500000    1.000000
        rExp                           1.000000
      * Coulomb:
        alpha                          2.000000
        third order                    shell-resolved
        anisotropic                    true
        a3                             3.000000
        a5                             4.000000
        cn-shift                       1.200000
        cn-exp                         4.000000
        max-rad                        5.000000


          ...................................................
          :                      SETUP                      :
          :.................................................:
          :  # basis functions                  48          :
          :  # atomic orbitals                  48          :
          :  # shells                           24          :
          :  # electrons                        36          :
          :  max. iterations                   250          :
          :  Hamiltonian                  GFN2-xTB          :
          :  restarted?                      false          :
          :  GBSA solvation                  false          :
          :  PC potential                    false          :
          :  electronic temp.          300.0000000     K    :
          :  accuracy                    0.2000000          :
          :  -> integral cutoff          0.3198970E+02      :
          :  -> integral neglect         0.2000000E-08      :
          :  -> SCF convergence          0.2000000E-06 Eh   :
          :  -> wf. convergence          0.2000000E-04 e    :
          :  Broyden damping             0.4000000          :
          ...................................................

 iter      E             dE          RMSdq      gap      omega  full diag
   1    -13.3316927 -0.133317E+02  0.206E+01    0.28       0.0  T
   2     -4.5350077  0.879668E+01  0.199E+01    0.38       1.0  T
   3     16.4957900  0.210308E+02  0.268E+01    0.15       1.0  T
   4     -3.7977313 -0.202935E+02  0.182E+01    0.29       1.0  T
   5     -9.4622833 -0.566455E+01  0.131E+01    0.53       1.0  T
   6     -8.9700243  0.492259E+00  0.131E+01    0.32       1.0  T
   7    -11.6771437 -0.270712E+01  0.107E+01    0.37       1.0  T
   8    -12.7782672 -0.110112E+01  0.788E+00    0.09       1.0  T
   9    -13.6815942 -0.903327E+00  0.651E+00    0.06       1.0  T
  10    -13.6396351  0.419591E-01  0.607E+00    0.21       1.0  T
  11    -13.7564189 -0.116784E+00  0.564E+00    0.13       1.0  T
  12    -13.7606131 -0.419416E-02  0.568E+00    0.12       1.0  T
  13    -13.6987052  0.619079E-01  0.574E+00    0.11       1.0  T
  14    -13.7408995 -0.421944E-01  0.522E+00    0.15       1.0  T
  15    -13.7487644 -0.786489E-02  0.334E+00    0.10       1.0  T
  16    -13.7073734  0.413910E-01  0.325E+00    0.09       1.0  T
  17    -13.7134472 -0.607385E-02  0.317E+00    0.09       1.0  T
  18    -13.6224716  0.909756E-01  0.381E+00    0.07       1.0  T
  19    -13.5714645  0.510071E-01  0.399E+00    0.11       1.0  T
  20    -13.7312406 -0.159776E+00  0.268E+00    0.12       1.0  T
  21    -13.7999175 -0.686769E-01  0.166E+00    0.10       1.0  T
  22    -13.8057103 -0.579283E-02  0.152E+00    0.10       1.0  T
  23    -13.8050600  0.650297E-03  0.145E+00    0.10       1.0  T
  24    -13.8254878 -0.204278E-01  0.863E-01    0.07       1.0  T
  25    -13.8268977 -0.140983E-02  0.787E-01    0.06       1.0  T
  26    -13.8267309  0.166759E-03  0.803E-01    0.06       1.0  T
  27    -13.8313604 -0.462954E-02  0.384E-01    0.06       1.0  T
  28    -13.8328669 -0.150643E-02  0.246E-01    0.06       1.0  T
  29    -13.8329048 -0.378990E-04  0.244E-01    0.07       1.0  T
  30    -13.8331156 -0.210804E-03  0.124E-01    0.07       1.0  T
  31    -13.8331880 -0.724669E-04  0.953E-02    0.06       1.0  T
  32    -13.8332029 -0.148622E-04  0.933E-02    0.06       1.0  T
  33    -13.8332502 -0.473121E-04  0.631E-02    0.06       1.0  T
  34    -13.8332486  0.158002E-05  0.493E-02    0.06       1.0  T
  35    -13.8332662 -0.176070E-04  0.230E-02    0.06       1.3  T
  36    -13.8332697 -0.350251E-05  0.102E-02    0.06       2.8  T
  37    -13.8332700 -0.290879E-06  0.841E-03    0.06       3.4  T
  38    -13.8332701 -0.713619E-07  0.367E-03    0.06       7.9  T
  39    -13.8332700  0.551629E-07  0.393E-03    0.06       7.3  T
  40    -13.8332701 -0.654292E-07  0.329E-03    0.06       8.8  T
  41    -13.8332702 -0.754855E-07  0.205E-03    0.06      14.1  T
  42    -13.8332702 -0.471261E-07  0.538E-04    0.06      53.6  T
  43    -13.8332702 -0.337389E-08  0.309E-04    0.06      93.4  T
  44    -13.8332702 -0.112036E-08  0.110E-04    0.06     262.2  T
  45    -13.8332702 -0.103141E-09  0.474E-05    0.06     609.2  T

   *** convergence criteria satisfied after 45 iterations ***

         #    Occupation            Energy/Eh            Energy/eV
      -------------------------------------------------------------
         1        2.0000           -0.4314055             -11.7391
       ...           ...                  ...                  ...
        13        2.0000           -0.2669560              -7.2642
        14        2.0000           -0.2626939              -7.1483
        15        2.0000           -0.2476936              -6.7401
        16        2.0000           -0.2386244              -6.4933
        17        1.9396           -0.2317123              -6.3052
        18        1.0603           -0.2264989              -6.1633
        19        0.7696           -0.2193867              -5.9698 (HOMO)
        20        0.2306           -0.2170967              -5.9075 (LUMO)
        21        0.0000           -0.2068977              -5.6300
        22        0.0000           -0.2041847              -5.5561
        23                         -0.1911063              -5.2003
        24                         -0.1866948              -5.0802
       ...                                ...                  ...
        48                          2.0186814              54.9311
      -------------------------------------------------------------
                  HL-Gap            0.0022900 Eh            0.0623 eV
             Fermi-level           -0.2236734 Eh           -6.0865 eV

 transition dipole moment (au) for excitation:          18          19
     X       Y       Z   
   0.3717   1.0507   0.3609  total (au/Debye):    1.171   2.978
 dE (eV)             :    0.194
 oscillator strength :  0.92021E-02

 SCC (total)                   0 d,  0 h,  0 min,  0.064 sec
 SCC setup                      ...        0 min,  0.000 sec (  0.233%)
 Dispersion                     ...        0 min,  0.000 sec (  0.177%)
 classical contributions        ...        0 min,  0.000 sec (  0.054%)
 integral evaluation            ...        0 min,  0.003 sec (  4.469%)
 iterations                     ...        0 min,  0.051 sec ( 80.573%)
 molecular gradient             ...        0 min,  0.005 sec (  8.195%)
 printout                       ...        0 min,  0.004 sec (  6.262%)

         :::::::::::::::::::::::::::::::::::::::::::::::::::::
         ::                     SUMMARY                     ::
         :::::::::::::::::::::::::::::::::::::::::::::::::::::
         :: total energy             -13.541502035231 Eh    ::
         :: gradient norm              0.471068863883 Eh/a0 ::
         :: HOMO-LUMO gap              0.062314887323 eV    ::
         ::.................................................::
         :: SCC energy               -13.833270233523 Eh    ::
         :: -> isotropic ES            0.070001755657 Eh    ::
         :: -> anisotropic ES          0.002139142912 Eh    ::
         :: -> anisotropic XC         -0.029372335400 Eh    ::
         :: -> dispersion             -0.018428616640 Eh    ::
         :: repulsion energy           0.291731718132 Eh    ::
         :: add. restraining           0.000000000000 Eh    ::
         :: total charge               0.000000000017 e     ::
         :::::::::::::::::::::::::::::::::::::::::::::::::::::


Property printout bound to 'properties.out'

           -------------------------------------------------
          | TOTAL ENERGY              -13.541502035231 Eh   |
          | GRADIENT NORM               0.471068863883 Eh/α |
          | HOMO-LUMO GAP               0.062314887323 eV   |
           -------------------------------------------------

------------------------------------------------------------------------
 * finished run on 2026/04/17 at 12:14:35.557     
------------------------------------------------------------------------
 total:
 * wall-time:     0 d,  0 h,  0 min,  0.075 sec
 *  cpu-time:     0 d,  0 h,  0 min,  0.075 sec
 * ratio c/w:     0.999 speedup
 SCF:
 * wall-time:     0 d,  0 h,  0 min,  0.064 sec
 *  cpu-time:     0 d,  0 h,  0 min,  0.064 sec
 * ratio c/w:     0.999 speedup


-------------------------   --------------------
FINAL SINGLE POINT ENERGY       -13.541502035230
-------------------------   --------------------


-------------
DIPOLE MOMENT
-------------
                                X             Y             Z
Total Dipole Moment    :      0.67800       0.11600       0.05600
                        -----------------------------------------
Magnitude (a.u.)       :      0.69013
Magnitude (Debye)      :      1.75416


------------------
CARTESIAN GRADIENT
------------------

   1   B   :    0.011146956    0.179836075    0.000900546
   2   B   :   -0.005368359    0.169146881    0.099907308
   3   B   :   -0.136905369   -0.084597183   -0.139123133
   4   B   :   -0.067247834   -0.167272164   -0.013615428
   5   B   :    0.005715339    0.003455364    0.040632585
   6   B   :    0.016927719    0.007937796   -0.082547201
   7   B   :   -0.048029301    0.038574073    0.024468728
   8   B   :    0.078796618    0.005623091   -0.009667145
   9   B   :    0.136555333   -0.072924761    0.112073934
  10   B   :   -0.015872156   -0.043108586   -0.014269138
  11   B   :   -0.064124476   -0.047251574   -0.008500865
  12   B   :    0.088405531    0.010580986   -0.010260189

Difference to translation invariance:
           :   -0.0000000000    0.0000000000   -0.0000000000

Difference to rotation invariance:
           :   -0.0000000297    0.0000000445   -0.0000000024

Norm of the Cartesian gradient     ...    0.4710688639
RMS gradient                       ...    0.0785114773
MAX gradient                       ...    0.1798360745
------------------------------------------------------------------------------
                         ORCA GEOMETRY RELAXATION STEP
------------------------------------------------------------------------------

Reading the OPT-File                    .... done
Getting information on internals        .... done
Copying old internal coords+grads       .... done
Making the new internal coordinates     .... (2022 redundants) done
Validating the new internal coordinates .... (2022 redundants) done
Calculating the B-matrix                .... done
Calculating the G,G- and P matrices     .... done
Transforming gradient to internals      .... done
Projecting the internal gradient        .... done
Number of atoms                         ....  12
Number of internal coordinates          ....  72
Current Energy                          ....   -13.541502035 Eh
Current gradient norm                   ....     0.471068864 Eh/bohr
Maximum allowed component of the step   ....  0.300
Current trust radius                    ....  0.300
Evaluating the initial hessian          ....  (Almloef) done
Projecting the Hessian                  .... done
Forming the augmented Hessian           .... done
Diagonalizing the augmented Hessian     .... done
Last element of RFO vector              ....  0.833373784
Lowest eigenvalues of augmented Hessian:
 -0.207736862  0.010000000  0.010000000  0.013237138  0.014948334
Length of the computed step             ....  0.663219580
Warning: the length of the step is outside the trust region - taking restricted step instead
The input lambda is                     ....     0.009000
   iter:   5  x=    0.002173  g=23561.732645 f(x)=    63.389570
   iter:  10  x=   -0.105668  g=   29.260193 f(x)=     1.633100
   iter:  15  x=   -0.738238  g=    0.203891 f(x)=     0.011733
The output lambda is                    ....    -0.744170 (19 iterations)
The final length of the internal step   ....  0.300000000
Converting the step to Cartesian space:
 Initial RMS(Int)=    0.0353553391
Transforming coordinates:
 Iter   0:  RMS(Cart)=    0.1696413921 RMS(Int)=    0.0351562388
 Iter   5:  RMS(Cart)=    0.0000000814 RMS(Int)=    0.0000000398
done
Storing new coordinates                 .... done

                                .--------------------.
          ----------------------|Geometry convergence|-------------------------
          Item                value                   Tolerance       Converged
          ---------------------------------------------------------------------
          RMS gradient        0.0427386068            0.0000300000      NO
          MAX gradient        0.1778789295            0.0001000000      NO
          RMS step            0.0353553391            0.0006000000      NO
          MAX step            0.1049434649            0.0010000000      NO
          -------------------------------------------------------------------------
          ........................................................
          Max(Bonds)      0.0555      Max(Angles)    3.90
          Max(Dihed)        2.01      Max(Improp)    0.00
          ---------------------------------------------------------------------

The optimization has not yet converged - more geometry cycles are needed


    ---------------------------------------------------------------------------
                         Redundant Internal Coordinates
                            (Angstroem and degrees)

        Definition                    Value    dE/dq     Step     New-Value
    ----------------------------------------------------------------------------
     1. B(B   3,B   0)                1.3360 -0.177879  0.0533    1.3893   
     2. B(B   4,B   2)                1.9361  0.007589 -0.0070    1.9290   
     3. B(B   6,B   5)                1.6953  0.043951 -0.0231    1.6722   
     4. B(B   7,B   5)                1.9202  0.084883 -0.0520    1.8682   
     5. B(B   7,B   4)                1.9739  0.088393 -0.0555    1.9184   
     6. B(B   8,B   1)                1.3814 -0.165886  0.0546    1.4360   
     7. B(B   8,B   0)                1.9156  0.058060 -0.0355    1.8802   
     8. B(B   8,B   4)                1.7190  0.009385 -0.0070    1.7121   
     9. B(B   8,B   2)                1.3979 -0.114054  0.0454    1.4433   
    10. B(B   9,B   6)                1.5209  0.030932 -0.0138    1.5070   
    11. B(B   9,B   5)                2.0808  0.026338 -0.0159    2.0649   
    12. B(B  10,B   1)                1.7649  0.079277 -0.0439    1.7210   
    13. B(B  11,B   8)                1.8455 -0.050294  0.0207    1.8663   
    14. B(B  11,B   2)                1.4036 -0.060535  0.0242    1.4278   
    15. A(B   3,B   0,B   8)           96.38  0.064385   -3.32     93.06   
    16. A(B   8,B   1,B  10)           97.83 -0.013737    0.69     98.52   
    17. A(B   8,B   2,B  11)           82.41  0.032450   -1.36     81.05   
    18. A(B   4,B   2,B   8)           59.50  0.012295   -0.55     58.95   
    19. A(B   4,B   2,B  11)          118.69  0.040471   -1.86    116.83   
    20. A(B   7,B   4,B   8)          106.33  0.030043   -1.49    104.85   
    21. A(B   2,B   4,B   8)           44.48 -0.038122    1.74     46.22   
    22. A(B   2,B   4,B   7)          142.60 -0.002840    0.08    142.68   
    23. A(B   6,B   5,B   9)           46.11  0.002514   -0.02     46.10   
    24. A(B   7,B   5,B   9)          121.41  0.009715   -0.64    120.77   
    25. A(B   6,B   5,B   7)          115.46  0.005451   -0.36    115.11   
    26. A(B   5,B   6,B   9)           80.43 -0.009765    0.39     80.82   
    27. A(B   4,B   7,B   5)          115.43  0.067895   -3.90    111.52   
    28. A(B   0,B   8,B   2)          117.98  0.006861   -0.44    117.54   
    29. A(B   2,B   8,B   4)           76.02  0.025827   -1.19     74.83   
    30. A(B   1,B   8,B   4)          113.68 -0.020726    1.12    114.79   
    31. A(B   4,B   8,B  11)          108.06  0.027894   -1.38    106.68   
    32. A(B   0,B   8,B   4)           95.52  0.016790   -1.24     94.28   
    33. A(B   0,B   8,B  11)           78.79  0.003417   -0.07     78.73   
    34. A(B   0,B   8,B   1)          125.30  0.001679   -0.00    125.29   
    35. A(B   1,B   8,B  11)          127.56 -0.013382    0.68    128.24   
    36. A(B   2,B   8,B  11)           48.93 -0.004679    0.19     49.11   
    37. A(B   1,B   8,B   2)          113.60 -0.015533    0.88    114.48   
    38. A(B   5,B   9,B   6)           53.46  0.007251   -0.37     53.08   
    39. A(B   2,B  11,B   8)           48.66 -0.027771    1.18     49.84   
    40. D(B   7,B   4,B   2,B  11)   -108.05 -0.017042    0.81   -107.24   
    41. D(B   8,B   4,B   2,B  11)    -60.19 -0.020786    0.74    -59.44   
    42. D(B   7,B   4,B   2,B   8)    -47.86  0.003744    0.07    -47.79   
    43. D(B   9,B   6,B   5,B   7)   -110.06 -0.009322    0.59   -109.46   
    44. D(B   5,B   7,B   4,B   2)     92.28  0.010306   -1.19     91.09   
    45. D(B   4,B   7,B   5,B   9)    -42.25  0.002850   -0.34    -42.59   
    46. D(B   5,B   7,B   4,B   8)     59.50  0.031816   -2.01     57.49   
    47. D(B   4,B   7,B   5,B   6)     10.24  0.009297   -0.59      9.66   
    48. D(B  11,B   8,B   4,B   2)     37.50 -0.007327    0.37     37.88   
    49. D(B   1,B   8,B   4,B   2)   -109.96  0.005137   -0.40   -110.35   
    50. D(B   0,B   8,B   4,B   7)    -90.50 -0.002178    0.18    -90.32   
    51. D(B   0,B   8,B   1,B  10)    -36.09 -0.000861    0.01    -36.08   
    52. D(B   2,B   8,B   1,B  10)    123.38 -0.021972    1.32    124.70   
    53. D(B   4,B   8,B   1,B  10)   -152.14 -0.006373    0.73   -151.41   
    54. D(B  11,B   8,B   0,B   3)     92.64 -0.005691    0.65     93.29   
    55. D(B   4,B   8,B   0,B   3)    -14.72 -0.031305    1.84    -12.88   
    56. D(B   1,B   8,B   2,B  11)   -120.11  0.006036   -0.24   -120.35   
    57. D(B   2,B   8,B   0,B   3)     62.37  0.006569   -0.15     62.22   
    58. D(B   1,B   8,B   2,B   4)    110.05 -0.011419    0.69    110.74   
    59. D(B   4,B   8,B   2,B  11)    129.84  0.017455   -0.93    128.91   
    60. D(B  11,B   8,B   2,B   4)   -129.84 -0.017455    0.93   -128.91   
    61. D(B   0,B   8,B   4,B   2)    117.49  0.002675   -0.14    117.35   
    62. D(B   0,B   8,B   2,B  11)     40.98 -0.014120    1.04     42.02   
    63. D(B   1,B   8,B   0,B   3)   -138.97 -0.019530    1.46   -137.51   
    64. D(B   1,B   8,B   4,B   7)     42.05  0.000284   -0.08     41.97   
    65. D(B   2,B   8,B   4,B   7)    152.01 -0.004853    0.32    152.33   
    66. D(B   0,B   8,B   2,B   4)    -88.86 -0.031575    1.97    -86.89   
    67. D(B  11,B   8,B   1,B  10)     68.03 -0.006245    0.53     68.56   
    68. D(B   6,B   9,B   5,B   7)     96.41  0.000589    0.04     96.45   
    69. D(B   2,B  11,B   8,B   0)   -143.81 -0.015052    1.06   -142.76   
    70. D(B   8,B  11,B   2,B   4)     48.95  0.017033   -0.65     48.30   
    71. D(B   2,B  11,B   8,B   4)    -51.60 -0.001210   -0.03    -51.63   
    72. D(B   2,B  11,B   8,B   1)     89.98 -0.015751    0.90     90.88   
    ----------------------------------------------------------------------------

Geometry step timings:
Preparation and reading OPT file:      0.000 s ( 1.479 %)
Internal coordinates            :      0.000 s ( 1.073 %)
B/P matrices and projection     :      0.001 s (16.589 %)
Hessian update/contruction      :      0.000 s (10.151 %)
Making the step                 :      0.002 s (46.114 %)
Converting the step to Cartesian:      0.000 s ( 3.364 %)
Storing new data                :      0.000 s ( 2.813 %)
Checking convergence            :      0.000 s ( 1.769 %)
Final printing                  :      0.001 s (16.589 %)
Total time                      :      0.003 s

Time for energy+gradient        :      0.088 s
Time for complete geometry iter :      0.093 s

         *************************************************************
         *                GEOMETRY OPTIMIZATION CYCLE   2            *
         *************************************************************
---------------------------------
CARTESIAN COORDINATES (ANGSTROEM)
---------------------------------
  B    -1.352694    0.188781    0.257005
  B     1.011917   -1.578711    0.218188
  B     0.668512   -0.256300    2.217370
  B    -0.958831    1.503173    0.475001
  B     1.088381    1.006939    0.821182
  B     0.510941    0.991110   -2.255562
  B    -1.061526    1.027107   -1.687916
  B     1.831336    1.140663   -0.942438
  B     0.290932   -0.507840    0.847089
  B    -0.985372   -0.422473   -2.092970
  B    -0.331175   -2.534257   -0.276536
  B    -0.712421   -0.558193    2.419588

----------------------------
CARTESIAN COORDINATES (A.U.)
----------------------------
  NO LB    ZA    FRAG    MASS        X           Y           Z
   0 B   5.0000    0    10.810   -2.556221    0.356745    0.485669
   1 B   5.0000    0    10.810    1.912246   -2.983331    0.412315
   2 B   5.0000    0    10.810    1.263304   -0.484336    4.190223
   3 B   5.0000    0    10.810   -1.811929    2.840586    0.897621
   4 B   5.0000    0    10.810    2.056742    1.902839    1.551810
   5 B   5.0000    0    10.810    0.965539    1.872926   -4.262395
   6 B   5.0000    0    10.810   -2.005994    1.940951   -3.189700
   7 B   5.0000    0    10.810    3.460724    2.155541   -1.780951
   8 B   5.0000    0    10.810    0.549782   -0.959679    1.600766
   9 B   5.0000    0    10.810   -1.862082   -0.798358   -3.955140
  10 B   5.0000    0    10.810   -0.625830   -4.789052   -0.522577
  11 B   5.0000    0    10.810   -1.346280   -1.054832    4.572359

      -----------------------------------------------------------      
     |                   =====================                   |     
     |                           x T B                           |     
     |                   =====================                   |     
     |                         S. Grimme                         |     
     |          Mulliken Center for Theoretical Chemistry        |     
     |                    University of Bonn                     |     
      -----------------------------------------------------------      

   * xtb version 6.6.1 (unknown) compiled by 'builduser@buildhost' on 2023-08-07

   xtb is free software: you can redistribute it and/or modify it under
   the terms of the GNU Lesser General Public License as published by
   the Free Software Foundation, either version 3 of the License, or
   (at your option) any later version.
   
   xtb is distributed in the hope that it will be useful,
   but WITHOUT ANY WARRANTY; without even the implied warranty of
   MERCHANTABILITY or FITNESS FOR A PARTICULAR PURPOSE.  See the
   GNU Lesser General Public License for more details.
   
   Cite this work as:
   * C. Bannwarth, E. Caldeweyher, S. Ehlert, A. Hansen, P. Pracht,
     J. Seibert, S. Spicher, S. Grimme, WIREs Comput. Mol. Sci., 2020, 11,
     e01493. DOI: 10.1002/wcms.1493
   
   for GFN2-xTB:
   * C. Bannwarth, S. Ehlert and S. Grimme., J. Chem. Theory Comput., 2019,
     15, 1652-1671. DOI: 10.1021/acs.jctc.8b01176
   for GFN1-xTB:
   * S. Grimme, C. Bannwarth, P. Shushkov, J. Chem. Theory Comput., 2017,
     13, 1989-2009. DOI: 10.1021/acs.jctc.7b00118
   for GFN0-xTB:
   * P. Pracht, E. Caldeweyher, S. Ehlert, S. Grimme, ChemRxiv, 2019, preprint.
     DOI: 10.26434/chemrxiv.8326202.v1
   for GFN-FF:
   * S. Spicher and S. Grimme, Angew. Chem. Int. Ed., 2020, 59, 15665-15673.
     DOI: 10.1002/anie.202004239
   
   for ALPB and GBSA implicit solvation:
   * S. Ehlert, M. Stahn, S. Spicher, S. Grimme, J. Chem. Theory Comput.,
     2021, 17, 4250-4261. DOI: 10.1021/acs.jctc.1c00471
   
   for DFT-D4:
   * E. Caldeweyher, C. Bannwarth and S. Grimme, J. Chem. Phys., 2017,
     147, 034112. DOI: 10.1063/1.4993215
   * E. Caldeweyher, S. Ehlert, A. Hansen, H. Neugebauer, S. Spicher,
     C. Bannwarth and S. Grimme, J. Chem. Phys., 2019, 150, 154122.
     DOI: 10.1063/1.5090222
   * E. Caldeweyher, J.-M. Mewes, S. Ehlert and S. Grimme, Phys. Chem. Chem. Phys.
     2020, 22, 8499-8512. DOI: 10.1039/D0CP00502A
   
   for sTDA-xTB:
   * S. Grimme and C. Bannwarth, J. Chem. Phys., 2016, 145, 054103.
     DOI: 10.1063/1.4959605
   
   in the mass-spec context:
   * V. Asgeirsson, C. Bauer and S. Grimme, Chem. Sci., 2017, 8, 4879.
     DOI: 10.1039/c7sc00601b
   * J. Koopman and S. Grimme, ACS Omega 2019, 4, 12, 15120-15133.
     DOI: 10.1021/acsomega.9b02011
   
   for metadynamics refer to:
   * S. Grimme, J. Chem. Theory Comput., 2019, 155, 2847-2862
     DOI: 10.1021/acs.jctc.9b00143
   
   for SPH calculations refer to:
   * S. Spicher and S. Grimme, J. Chem. Theory Comput., 2021, 17, 1701-1714
     DOI: 10.1021/acs.jctc.0c01306
   
   with help from (in alphabetical order)
   P. Atkinson, C. Bannwarth, F. Bohle, G. Brandenburg, E. Caldeweyher
   M. Checinski, S. Dohm, S. Ehlert, S. Ehrlich, I. Gerasimov, C. Hölzer
   A. Katbashev, J. Koopman, C. Lavigne, S. Lehtola, F. März, M. Müller,
   F. Musil, H. Neugebauer, J. Pisarek, C. Plett, P. Pracht, F. Pultar,
   J. Seibert, P. Shushkov, S. Spicher, M. Stahn, M. Steiner, T. Strunk,
   J. Stückrath, T. Rose, and J. Unsleber
   
 * started run on 2026/04/17 at 12:14:35.575     

           -------------------------------------------------
          |                Calculation Setup                |
           -------------------------------------------------

          program call               : /usr/bin/xtb random_d1.50_010_m3_XTB.xyz --grad -c 0 -u 2 -P 1 --namespace random_d1.50_010_m3 --input random_d1.50_010_m3_XTB.input.tmp --acc 0.200000
          calculation namespace      : random_d1.50_010_m3
          coordinate file            : random_d1.50_010_m3_XTB.xyz
          omp threads                :                     1

   ID    Z sym.   atoms
    1    5 B      1-12

molecular fragmentation (1/2 indicates fragments):
111111111211
# atoms in fragment 1/2:    11     1
 fragment masses (1/2) :      118.92       10.81
CMA distance (Bohr)    :   4.848
constraining FC (au)   :  0.0500

           -------------------------------------------------
          |                 G F N 2 - x T B                 |
           -------------------------------------------------

        Reference                      10.1021/acs.jctc.8b01176
      * Hamiltonian:
        H0-scaling (s, p, d)           1.850000    2.230000    2.230000
        zeta-weighting                 0.500000
      * Dispersion:
        s8                             2.700000
        a1                             0.520000
        a2                             5.000000
        s9                             5.000000
      * Repulsion:
        kExp                           1.500000    1.000000
        rExp                           1.000000
      * Coulomb:
        alpha                          2.000000
        third order                    shell-resolved
        anisotropic                    true
        a3                             3.000000
        a5                             4.000000
        cn-shift                       1.200000
        cn-exp                         4.000000
        max-rad                        5.000000

q/qsh data taken from xtbrestart
CAMM data taken from xtbrestart

          ...................................................
          :                      SETUP                      :
          :.................................................:
          :  # basis functions                  48          :
          :  # atomic orbitals                  48          :
          :  # shells                           24          :
          :  # electrons                        36          :
          :  max. iterations                   250          :
          :  Hamiltonian                  GFN2-xTB          :
          :  restarted?                       true          :
          :  GBSA solvation                  false          :
          :  PC potential                    false          :
          :  electronic temp.          300.0000000     K    :
          :  accuracy                    0.2000000          :
          :  -> integral cutoff          0.3198970E+02      :
          :  -> integral neglect         0.2000000E-08      :
          :  -> SCF convergence          0.2000000E-06 Eh   :
          :  -> wf. convergence          0.2000000E-04 e    :
          :  Broyden damping             0.4000000          :
          ...................................................

 iter      E             dE          RMSdq      gap      omega  full diag
   1    -13.8417367 -0.138417E+02  0.387E+00    0.09       0.0  T
   2    -12.5712337  0.127050E+01  0.689E+00    0.26       1.0  T
   3    -12.3192542  0.251980E+00  0.730E+00    0.43       1.0  T
   4    -13.0210700 -0.701816E+00  0.655E+00    0.24       1.0  T
   5    -13.6305085 -0.609439E+00  0.354E+00    0.20       1.0  T
   6    -12.8252394  0.805269E+00  0.604E+00    0.40       1.0  T
   7    -13.6700999 -0.844860E+00  0.284E+00    0.17       1.0  T
   8    -13.7621824 -0.920825E-01  0.235E+00    0.17       1.0  T
   9    -13.8140383 -0.518559E-01  0.184E+00    0.13       1.0  T
  10    -13.8456863 -0.316480E-01  0.153E+00    0.14       1.0  T
  11    -13.8658141 -0.201278E-01  0.122E+00    0.12       1.0  T
  12    -13.8703071 -0.449299E-02  0.104E+00    0.11       1.0  T
  13    -13.8705601 -0.252958E-03  0.109E+00    0.11       1.0  T
  14    -13.8723934 -0.183332E-02  0.923E-01    0.11       1.0  T
  15    -13.8732735 -0.880074E-03  0.808E-01    0.11       1.0  T
  16    -13.8742294 -0.955949E-03  0.594E-01    0.11       1.0  T
  17    -13.8751838 -0.954351E-03  0.525E-01    0.11       1.0  T
  18    -13.8767334 -0.154962E-02  0.383E-01    0.10       1.0  T
  19    -13.8767606 -0.271847E-04  0.321E-01    0.10       1.0  T
  20    -13.8769807 -0.220139E-03  0.248E-01    0.10       1.0  T
  21    -13.8774107 -0.429953E-03  0.153E-01    0.10       1.0  T
  22    -13.8775780 -0.167287E-03  0.942E-02    0.10       1.0  T
  23    -13.8776141 -0.361701E-04  0.448E-02    0.10       1.0  T
  24    -13.8776101  0.408260E-05  0.378E-02    0.10       1.0  T
  25    -13.8776229 -0.128269E-04  0.115E-02    0.10       2.5  T
  26    -13.8776244 -0.151655E-05  0.343E-03    0.10       8.4  T
  27    -13.8776245 -0.997811E-07  0.205E-03    0.10      14.1  T
  28    -13.8776245 -0.275837E-08  0.198E-03    0.10      14.6  T
  29    -13.8776245 -0.385933E-07  0.555E-04    0.10      52.0  T
  30    -13.8776245 -0.357938E-08  0.240E-04    0.10     120.1  T
  31    -13.8776245 -0.607342E-09  0.103E-04    0.10     281.4  T
  32    -13.8776245 -0.295284E-10  0.695E-05    0.10     415.5  T

   *** convergence criteria satisfied after 32 iterations ***

         #    Occupation            Energy/Eh            Energy/eV
      -------------------------------------------------------------
         1        2.0000           -0.4244065             -11.5487
       ...           ...                  ...                  ...
        13        2.0000           -0.2619133              -7.1270
        14        2.0000           -0.2576231              -7.0103
        15        2.0000           -0.2473579              -6.7310
        16        1.9997           -0.2351544              -6.3989
        17        1.9859           -0.2314707              -6.2986
        18        1.0142           -0.2234182              -6.0795
        19        0.8674           -0.2168109              -5.8997 (HOMO)
        20        0.1327           -0.2132429              -5.8026 (LUMO)
        21        0.0000           -0.2009175              -5.4672
        22                         -0.1978189              -5.3829
        23                         -0.1865082              -5.0751
        24                         -0.1803639              -4.9080
       ...                                ...                  ...
        48                          1.6890241              45.9607
      -------------------------------------------------------------
                  HL-Gap            0.0035680 Eh            0.0971 eV
             Fermi-level           -0.2212306 Eh           -6.0200 eV

 transition dipole moment (au) for excitation:          18          19
     X       Y       Z   
  -0.1505  -1.7004  -0.7028  total (au/Debye):    1.846   4.692
 dE (eV)             :    0.180
 oscillator strength :  0.21230E-01

 SCC (total)                   0 d,  0 h,  0 min,  0.041 sec
 SCC setup                      ...        0 min,  0.000 sec (  0.407%)
 Dispersion                     ...        0 min,  0.000 sec (  0.249%)
 classical contributions        ...        0 min,  0.000 sec (  0.090%)
 integral evaluation            ...        0 min,  0.003 sec (  6.202%)
 iterations                     ...        0 min,  0.028 sec ( 69.324%)
 molecular gradient             ...        0 min,  0.005 sec ( 12.499%)
 printout                       ...        0 min,  0.005 sec ( 11.154%)

         :::::::::::::::::::::::::::::::::::::::::::::::::::::
         ::                     SUMMARY                     ::
         :::::::::::::::::::::::::::::::::::::::::::::::::::::
         :: total energy             -13.647115642182 Eh    ::
         :: gradient norm              0.336701333414 Eh/a0 ::
         :: HOMO-LUMO gap              0.097089908058 eV    ::
         ::.................................................::
         :: SCC energy               -13.877624549223 Eh    ::
         :: -> isotropic ES            0.071832662598 Eh    ::
         :: -> anisotropic ES          0.002956421474 Eh    ::
         :: -> anisotropic XC         -0.028159042276 Eh    ::
         :: -> dispersion             -0.016731755873 Eh    ::
         :: repulsion energy           0.230484243636 Eh    ::
         :: add. restraining           0.000000000000 Eh    ::
         :: total charge               0.000000000026 e     ::
         :::::::::::::::::::::::::::::::::::::::::::::::::::::


Property printout bound to 'properties.out'

           -------------------------------------------------
          | TOTAL ENERGY              -13.647115642182 Eh   |
          | GRADIENT NORM               0.336701333414 Eh/α |
          | HOMO-LUMO GAP               0.097089908058 eV   |
           -------------------------------------------------

------------------------------------------------------------------------
 * finished run on 2026/04/17 at 12:14:35.627     
------------------------------------------------------------------------
 total:
 * wall-time:     0 d,  0 h,  0 min,  0.052 sec
 *  cpu-time:     0 d,  0 h,  0 min,  0.052 sec
 * ratio c/w:     0.999 speedup
 SCF:
 * wall-time:     0 d,  0 h,  0 min,  0.041 sec
 *  cpu-time:     0 d,  0 h,  0 min,  0.041 sec
 * ratio c/w:     1.000 speedup


-------------------------   --------------------
FINAL SINGLE POINT ENERGY       -13.647115642180
-------------------------   --------------------


-------------
DIPOLE MOMENT
-------------
                                X             Y             Z
Total Dipole Moment    :      0.36700      -0.31700      -0.19000
                        -----------------------------------------
Magnitude (a.u.)       :      0.52084
Magnitude (Debye)      :      1.32388


------------------
CARTESIAN GRADIENT
------------------

   1   B   :    0.008107510    0.107362629    0.007579109
   2   B   :    0.035223457    0.124647229    0.073228959
   3   B   :   -0.089593790   -0.067594140   -0.096057741
   4   B   :   -0.073436257   -0.094789204   -0.005982333
   5   B   :    0.012892584   -0.004279357    0.040224594
   6   B   :    0.002301390    0.000679770   -0.079970286
   7   B   :   -0.036730165    0.013440172    0.016458129
   8   B   :    0.082074546    0.006969298   -0.012639055
   9   B   :    0.082008808   -0.029066143    0.081681699
  10   B   :   -0.012860574    0.000072368   -0.024536248
  11   B   :   -0.066062973   -0.061966277    0.002616192
  12   B   :    0.056075463    0.004523655   -0.002603019

Difference to translation invariance:
           :    0.0000000000   -0.0000000000    0.0000000000

Difference to rotation invariance:
           :   -0.0000000112    0.0000000351   -0.0000000174

Norm of the Cartesian gradient     ...    0.3367013334
RMS gradient                       ...    0.0561168889
MAX gradient                       ...    0.1246472291
------------------------------------------------------------------------------
                         ORCA GEOMETRY RELAXATION STEP
------------------------------------------------------------------------------

Reading the OPT-File                    .... done
Getting information on internals        .... done
Copying old internal coords+grads       .... done
Making the new internal coordinates     .... (2022 redundants) done
Validating the new internal coordinates .... (2022 redundants) done
Calculating the B-matrix                .... done
Calculating the G,G- and P matrices     .... done
Transforming gradient to internals      .... done
Projecting the internal gradient        .... done
Number of atoms                         ....  12
Number of internal coordinates          ....  72
Current Energy                          ....   -13.647115642 Eh
Current gradient norm                   ....     0.336701333 Eh/bohr
Maximum allowed component of the step   ....  0.300
Current trust radius                    ....  0.300
Updating the Hessian (BFGS)             .... done
Forming the augmented Hessian           .... done
Diagonalizing the augmented Hessian     .... done
Last element of RFO vector              ....  0.783697817
Lowest eigenvalues of augmented Hessian:
 -0.286818785  0.010000000  0.010000000  0.014585038  0.022229709
Length of the computed step             ....  0.792578806
Warning: the length of the step is outside the trust region - taking restricted step instead
The input lambda is                     ....     0.009000
   iter:   5  x=    0.002333  g=174855.359788 f(x)=   451.350188
   iter:  10  x=   -0.062376  g=  318.641390 f(x)=     9.051661
   iter:  15  x=   -0.758425  g=    0.732471 f(x)=     0.166083
   iter:  20  x=   -1.026079  g=    0.145401 f(x)=     0.000000
The output lambda is                    ....    -1.026079 (21 iterations)
The final length of the internal step   ....  0.300000000
Converting the step to Cartesian space:
 Initial RMS(Int)=    0.0353553391
Transforming coordinates:
 Iter   0:  RMS(Cart)=    0.2915160736 RMS(Int)=    0.0351846514
 Iter   5:  RMS(Cart)=    0.0000048973 RMS(Int)=    0.0000023542
done
Storing new coordinates                 .... done
The predicted energy change is          ....    -0.103386246
Previously predicted energy change      ....    -0.085731547
Actually observed energy change         ....    -0.105613607
Ratio of predicted to observed change   ....     1.231910664
New trust radius                        ....     0.450000000

                                .--------------------.
          ----------------------|Geometry convergence|-------------------------
          Item                value                   Tolerance       Converged
          ---------------------------------------------------------------------
          Energy change      -0.1056136069            0.0000010000      NO
          RMS gradient        0.0456993938            0.0000300000      NO
          MAX gradient        0.1818679754            0.0001000000      NO
          RMS step            0.0353553391            0.0006000000      NO
          MAX step            0.1422490604            0.0010000000      NO
          -------------------------------------------------------------------------
          ........................................................
          Max(Bonds)      0.0506      Max(Angles)    8.15
          Max(Dihed)        3.98      Max(Improp)    0.00
          ---------------------------------------------------------------------

The optimization has not yet converged - more geometry cycles are needed


    ---------------------------------------------------------------------------
                         Redundant Internal Coordinates
                            (Angstroem and degrees)

        Definition                    Value    dE/dq     Step     New-Value
    ----------------------------------------------------------------------------
     1. B(B   3,B   0)                1.3893 -0.111433  0.0288    1.4181   
     2. B(B   4,B   2)                1.9291  0.015278 -0.0081    1.9210   
     3. B(B   6,B   5)                1.6722  0.033954 -0.0138    1.6584   
     4. B(B   7,B   5)                1.8682  0.094175 -0.0435    1.8247   
     5. B(B   7,B   4)                1.9184  0.107511 -0.0506    1.8678   
     6. B(B   8,B   1)                1.4360 -0.095444  0.0267    1.4627   
     7. B(B   8,B   0)                1.8802  0.061268 -0.0283    1.8519   
     8. B(B   8,B   4)                1.7121  0.033106 -0.0147    1.6974   
     9. B(B   8,B   2)                1.4434 -0.094187  0.0304    1.4739   
    10. B(B   9,B   6)                1.5070  0.004151 -0.0018    1.5053   
    11. B(B   9,B   5)                2.0648  0.009542 -0.0043    2.0605   
    12. B(B  10,B   1)                1.7210  0.085212 -0.0364    1.6845   
    13. B(B  11,B   8)                1.8660 -0.037039  0.0127    1.8787   
    14. B(B  11,B   2)                1.4279 -0.041295  0.0136    1.4415   
    15. A(B   3,B   0,B   8)           93.06  0.097049   -3.99     89.08   
    16. A(B   8,B   1,B  10)           98.52 -0.002387    0.10     98.61   
    17. A(B   8,B   2,B  11)           81.06  0.024858   -0.89     80.17   
    18. A(B   4,B   2,B   8)           58.93  0.017922   -0.69     58.25   
    19. A(B   4,B   2,B  11)          116.84  0.042357   -1.68    115.16   
    20. A(B   7,B   4,B   8)          104.83  0.059741   -2.58    102.25   
    21. A(B   2,B   4,B   8)           46.23 -0.035462    1.31     47.54   
    22. A(B   2,B   4,B   7)          142.68  0.030426   -1.48    141.20   
    23. A(B   6,B   5,B   9)           46.10 -0.002242    0.11     46.20   
    24. A(B   7,B   5,B   9)          120.77  0.047426   -2.28    118.49   
    25. A(B   6,B   5,B   7)          115.11  0.029383   -1.32    113.79   
    26. A(B   5,B   6,B   9)           80.82 -0.007246    0.30     81.12   
    27. A(B   4,B   7,B   5)          111.52  0.181868   -8.15    103.37   
    28. A(B   0,B   8,B   2)          117.52 -0.000580    0.05    117.57   
    29. A(B   2,B   8,B   4)           74.83  0.017540   -0.62     74.21   
    30. A(B   1,B   8,B   4)          114.79 -0.025127    1.10    115.89   
    31. A(B   4,B   8,B  11)          106.68  0.026637   -1.06    105.62   
    32. A(B   0,B   8,B   4)           94.28  0.032589   -1.72     92.56   
    33. A(B   0,B   8,B  11)           78.72 -0.011093    0.60     79.32   
    34. A(B   0,B   8,B   1)          125.29  0.011500   -0.48    124.81   
    35. A(B   1,B   8,B  11)          128.24 -0.014658    0.65    128.89   
    36. A(B   2,B   8,B  11)           49.11 -0.001028    0.05     49.16   
    37. A(B   1,B   8,B   2)          114.48 -0.020804    0.96    115.44   
    38. A(B   5,B   9,B   6)           53.08  0.009488   -0.40     52.68   
    39. A(B   2,B  11,B   8)           49.83 -0.023830    0.84     50.67   
    40. D(B   7,B   4,B   2,B  11)   -107.25 -0.020854    0.89   -106.37   
    41. D(B   8,B   4,B   2,B  11)    -59.47 -0.011931    0.34    -59.13   
    42. D(B   7,B   4,B   2,B   8)    -47.79 -0.008923    0.55    -47.24   
    43. D(B   9,B   6,B   5,B   7)   -109.46 -0.040763    2.06   -107.41   
    44. D(B   5,B   7,B   4,B   2)     91.09  0.068136   -3.93     87.16   
    45. D(B   4,B   7,B   5,B   9)    -42.59  0.001863   -0.17    -42.75   
    46. D(B   5,B   7,B   4,B   8)     57.49  0.074813   -3.98     53.51   
    47. D(B   4,B   7,B   5,B   6)      9.66  0.016942   -0.87      8.78   
    48. D(B  11,B   8,B   4,B   2)     37.88 -0.008718    0.42     38.29   
    49. D(B   1,B   8,B   4,B   2)   -110.35  0.013209   -0.71   -111.05   
    50. D(B   0,B   8,B   4,B   7)    -90.30 -0.001880    0.10    -90.20   
    51. D(B   0,B   8,B   1,B  10)    -36.09 -0.002867    0.17    -35.92   
    52. D(B   2,B   8,B   1,B  10)    124.70 -0.037637    1.91    126.62   
    53. D(B   4,B   8,B   1,B  10)   -151.40 -0.035946    2.01   -149.40   
    54. D(B  11,B   8,B   0,B   3)     93.29 -0.009399    0.65     93.94   
    55. D(B   4,B   8,B   0,B   3)    -12.89 -0.030283    1.41    -11.48   
    56. D(B   1,B   8,B   2,B  11)   -120.35  0.004082   -0.14   -120.49   
    57. D(B   2,B   8,B   0,B   3)     62.23  0.006479   -0.20     62.03   
    58. D(B   1,B   8,B   2,B   4)    110.73 -0.018582    0.87    111.60   
    59. D(B   4,B   8,B   2,B  11)    128.92  0.022664   -1.01    127.91   
    60. D(B  11,B   8,B   2,B   4)   -128.92 -0.022664    1.01   -127.91   
    61. D(B   0,B   8,B   4,B   2)    117.37 -0.010273    0.46    117.84   
    62. D(B   0,B   8,B   2,B  11)     42.02 -0.024942    1.33     43.35   
    63. D(B   1,B   8,B   0,B   3)   -137.51 -0.032608    1.78   -135.73   
    64. D(B   1,B   8,B   4,B   7)     41.98  0.021602   -1.07     40.91   
    65. D(B   2,B   8,B   4,B   7)    152.32  0.008393   -0.36    151.96   
    66. D(B   0,B   8,B   2,B   4)    -86.90 -0.047606    2.34    -84.56   
    67. D(B  11,B   8,B   1,B  10)     68.55 -0.022653    1.24     69.79   
    68. D(B   6,B   9,B   5,B   7)     96.45 -0.000591    0.17     96.61   
    69. D(B   2,B  11,B   8,B   0)   -142.75 -0.019140    1.01   -141.73   
    70. D(B   8,B  11,B   2,B   4)     48.32  0.015639   -0.55     47.77   
    71. D(B   2,B  11,B   8,B   4)    -51.62  0.007024   -0.43    -52.05   
    72. D(B   2,B  11,B   8,B   1)     90.89 -0.020172    0.95     91.84   
    ----------------------------------------------------------------------------

Geometry step timings:
Preparation and reading OPT file:      0.000 s ( 1.039 %)
Internal coordinates            :      0.000 s ( 1.558 %)
B/P matrices and projection     :      0.001 s (18.247 %)
Hessian update/contruction      :      0.000 s (15.877 %)
Making the step                 :      0.001 s (35.844 %)
Converting the step to Cartesian:      0.000 s ( 3.409 %)
Storing new data                :      0.000 s ( 1.688 %)
Checking convergence            :      0.000 s ( 1.883 %)
Final printing                  :      0.001 s (20.325 %)
Total time                      :      0.003 s

Time for energy+gradient        :      0.063 s
Time for complete geometry iter :      0.067 s

         *************************************************************
         *                GEOMETRY OPTIMIZATION CYCLE   3            *
         *************************************************************
---------------------------------
CARTESIAN COORDINATES (ANGSTROEM)
---------------------------------
  B    -1.299891    0.292573    0.061925
  B     1.004344   -1.538341    0.071560
  B     0.581770   -0.229019    2.138403
  B    -0.782323    1.578260    0.362327
  B     1.047111    1.047038    0.779584
  B     0.435205    0.865505   -2.046582
  B    -1.042986    0.846288   -1.294949
  B     1.834382    1.151942   -0.910924
  B     0.261782   -0.456319    0.717585
  B    -0.912757   -0.624216   -1.588715
  B    -0.301027   -2.411425   -0.537838
  B    -0.825610   -0.522285    2.247625

----------------------------
CARTESIAN COORDINATES (A.U.)
----------------------------
  NO LB    ZA    FRAG    MASS        X           Y           Z
   0 B   5.0000    0    10.810   -2.456439    0.552883    0.117021
   1 B   5.0000    0    10.810    1.897936   -2.907043    0.135229
   2 B   5.0000    0    10.810    1.099387   -0.432784    4.040995
   3 B   5.0000    0    10.810   -1.478376    2.982479    0.684698
   4 B   5.0000    0    10.810    1.978754    1.978615    1.473200
   5 B   5.0000    0    10.810    0.822419    1.635567   -3.867479
   6 B   5.0000    0    10.810   -1.970958    1.599252   -2.447098
   7 B   5.0000    0    10.810    3.466479    2.176854   -1.721397
   8 B   5.0000    0    10.810    0.494696   -0.862319    1.356038
   9 B   5.0000    0    10.810   -1.724862   -1.179596   -3.002237
  10 B   5.0000    0    10.810   -0.568858   -4.556932   -1.016366
  11 B   5.0000    0    10.810   -1.560177   -0.986976    4.247397

      -----------------------------------------------------------      
     |                   =====================                   |     
     |                           x T B                           |     
     |                   =====================                   |     
     |                         S. Grimme                         |     
     |          Mulliken Center for Theoretical Chemistry        |     
     |                    University of Bonn                     |     
      -----------------------------------------------------------      

   * xtb version 6.6.1 (unknown) compiled by 'builduser@buildhost' on 2023-08-07

   xtb is free software: you can redistribute it and/or modify it under
   the terms of the GNU Lesser General Public License as published by
   the Free Software Foundation, either version 3 of the License, or
   (at your option) any later version.
   
   xtb is distributed in the hope that it will be useful,
   but WITHOUT ANY WARRANTY; without even the implied warranty of
   MERCHANTABILITY or FITNESS FOR A PARTICULAR PURPOSE.  See the
   GNU Lesser General Public License for more details.
   
   Cite this work as:
   * C. Bannwarth, E. Caldeweyher, S. Ehlert, A. Hansen, P. Pracht,
     J. Seibert, S. Spicher, S. Grimme, WIREs Comput. Mol. Sci., 2020, 11,
     e01493. DOI: 10.1002/wcms.1493
   
   for GFN2-xTB:
   * C. Bannwarth, S. Ehlert and S. Grimme., J. Chem. Theory Comput., 2019,
     15, 1652-1671. DOI: 10.1021/acs.jctc.8b01176
   for GFN1-xTB:
   * S. Grimme, C. Bannwarth, P. Shushkov, J. Chem. Theory Comput., 2017,
     13, 1989-2009. DOI: 10.1021/acs.jctc.7b00118
   for GFN0-xTB:
   * P. Pracht, E. Caldeweyher, S. Ehlert, S. Grimme, ChemRxiv, 2019, preprint.
     DOI: 10.26434/chemrxiv.8326202.v1
   for GFN-FF:
   * S. Spicher and S. Grimme, Angew. Chem. Int. Ed., 2020, 59, 15665-15673.
     DOI: 10.1002/anie.202004239
   
   for ALPB and GBSA implicit solvation:
   * S. Ehlert, M. Stahn, S. Spicher, S. Grimme, J. Chem. Theory Comput.,
     2021, 17, 4250-4261. DOI: 10.1021/acs.jctc.1c00471
   
   for DFT-D4:
   * E. Caldeweyher, C. Bannwarth and S. Grimme, J. Chem. Phys., 2017,
     147, 034112. DOI: 10.1063/1.4993215
   * E. Caldeweyher, S. Ehlert, A. Hansen, H. Neugebauer, S. Spicher,
     C. Bannwarth and S. Grimme, J. Chem. Phys., 2019, 150, 154122.
     DOI: 10.1063/1.5090222
   * E. Caldeweyher, J.-M. Mewes, S. Ehlert and S. Grimme, Phys. Chem. Chem. Phys.
     2020, 22, 8499-8512. DOI: 10.1039/D0CP00502A
   
   for sTDA-xTB:
   * S. Grimme and C. Bannwarth, J. Chem. Phys., 2016, 145, 054103.
     DOI: 10.1063/1.4959605
   
   in the mass-spec context:
   * V. Asgeirsson, C. Bauer and S. Grimme, Chem. Sci., 2017, 8, 4879.
     DOI: 10.1039/c7sc00601b
   * J. Koopman and S. Grimme, ACS Omega 2019, 4, 12, 15120-15133.
     DOI: 10.1021/acsomega.9b02011
   
   for metadynamics refer to:
[...]
        20        0.0015           -0.1899826              -5.1697 (LUMO)
        21                         -0.1632142              -4.4413
        22                         -0.1274445              -3.4679
        23                         -0.1116808              -3.0390
        24                         -0.1082170              -2.9447
       ...                                ...                  ...
        48                          1.1479080              31.2362
      -------------------------------------------------------------
                  HL-Gap            0.0123300 Eh            0.3355 eV
             Fermi-level           -0.2105679 Eh           -5.7298 eV

 transition dipole moment (au) for excitation:          18          19
     X       Y       Z   
   0.0974   0.1492  -0.0944  total (au/Debye):    0.202   0.513
 dE (eV)             :    0.313
 oscillator strength :  0.44157E-03

 SCC (total)                   0 d,  0 h,  0 min,  0.028 sec
 SCC setup                      ...        0 min,  0.000 sec (  0.679%)
 Dispersion                     ...        0 min,  0.000 sec (  0.260%)
 classical contributions        ...        0 min,  0.000 sec (  0.122%)
 integral evaluation            ...        0 min,  0.003 sec (  8.976%)
 iterations                     ...        0 min,  0.015 sec ( 52.258%)
 molecular gradient             ...        0 min,  0.006 sec ( 21.184%)
 printout                       ...        0 min,  0.005 sec ( 16.442%)

         :::::::::::::::::::::::::::::::::::::::::::::::::::::
         ::                     SUMMARY                     ::
         :::::::::::::::::::::::::::::::::::::::::::::::::::::
         :: total energy             -14.210886508810 Eh    ::
         :: gradient norm              0.018112849381 Eh/a0 ::
         :: HOMO-LUMO gap              0.335515806115 eV    ::
         ::.................................................::
         :: SCC energy               -14.428217547810 Eh    ::
         :: -> isotropic ES            0.076775361753 Eh    ::
         :: -> anisotropic ES          0.000947525020 Eh    ::
         :: -> anisotropic XC         -0.025451598833 Eh    ::
         :: -> dispersion             -0.010392197720 Eh    ::
         :: repulsion energy           0.217327613407 Eh    ::
         :: add. restraining           0.000000000000 Eh    ::
         :: total charge              -0.000000000041 e     ::
         :::::::::::::::::::::::::::::::::::::::::::::::::::::


Property printout bound to 'properties.out'

           -------------------------------------------------
          | TOTAL ENERGY              -14.210886508810 Eh   |
          | GRADIENT NORM               0.018112849381 Eh/α |
          | HOMO-LUMO GAP               0.335515806115 eV   |
           -------------------------------------------------

------------------------------------------------------------------------
 * finished run on 2026/04/17 at 12:14:38.871     
------------------------------------------------------------------------
 total:
 * wall-time:     0 d,  0 h,  0 min,  0.040 sec
 *  cpu-time:     0 d,  0 h,  0 min,  0.040 sec
 * ratio c/w:     0.997 speedup
 SCF:
 * wall-time:     0 d,  0 h,  0 min,  0.028 sec
 *  cpu-time:     0 d,  0 h,  0 min,  0.028 sec
 * ratio c/w:     0.999 speedup


-------------------------   --------------------
FINAL SINGLE POINT ENERGY       -14.210886508810
-------------------------   --------------------


-------------
DIPOLE MOMENT
-------------
                                X             Y             Z
Total Dipole Moment    :      0.38600       0.59700       0.48500
                        -----------------------------------------
Magnitude (a.u.)       :      0.86060
Magnitude (Debye)      :      2.18747


------------------
CARTESIAN GRADIENT
------------------

   1   B   :   -0.000143935    0.000784988    0.004852927
   2   B   :   -0.001067781   -0.004294020    0.000544428
   3   B   :    0.003081945   -0.000213382    0.003955949
   4   B   :   -0.001666901   -0.000635289    0.001408852
   5   B   :   -0.003960146    0.000005810    0.000772764
   6   B   :   -0.003883077    0.005076964   -0.002675311
   7   B   :    0.000494802   -0.003497839   -0.003834977
   8   B   :    0.006776282   -0.005005542    0.001895934
   9   B   :    0.000409031    0.007882554   -0.002646869
  10   B   :   -0.000702057   -0.000093122    0.000096220
  11   B   :    0.000701949   -0.001583367   -0.001008972
  12   B   :   -0.000040112    0.001572245   -0.003360945

Difference to translation invariance:
           :    0.0000000000    0.0000000000    0.0000000000

Difference to rotation invariance:
           :   -0.0000000244   -0.0000000216   -0.0000000853

Norm of the Cartesian gradient     ...    0.0181128494
RMS gradient                       ...    0.0030188082
MAX gradient                       ...    0.0078825537
------------------------------------------------------------------------------
                         ORCA GEOMETRY RELAXATION STEP
------------------------------------------------------------------------------

Reading the OPT-File                    .... done
Getting information on internals        .... done
Copying old internal coords+grads       .... done
Making the new internal coordinates     .... (2022 redundants) done
Validating the new internal coordinates .... (2022 redundants) done
Calculating the B-matrix                .... done
Calculating the G,G- and P matrices     .... done
Transforming gradient to internals      .... done
Projecting the internal gradient        .... done
Number of atoms                         ....  12
Number of internal coordinates          ....  72
Current Energy                          ....   -14.210886509 Eh
Current gradient norm                   ....     0.018112849 Eh/bohr
Maximum allowed component of the step   ....  0.300
Current trust radius                    ....  0.225
Updating the Hessian (BFGS)             .... done
Forming the augmented Hessian           .... done
Diagonalizing the augmented Hessian     .... done
Last element of RFO vector              ....  0.858671205
Lowest eigenvalues of augmented Hessian:
 -0.002153721  0.000088793  0.001046928  0.001221930  0.006759703
Length of the computed step             ....  0.596883694
Warning: the length of the step is outside the trust region - taking restricted step instead
The input lambda is                     ....    -0.000962
   iter:   5  x=   -0.009806  g=   12.613252 f(x)=     0.023798
   iter:  10  x=   -0.010470  g=    6.851040 f(x)=    -0.000000
The output lambda is                    ....    -0.010470 (10 iterations)
The final length of the internal step   ....  0.225000000
Converting the step to Cartesian space:
 Initial RMS(Int)=    0.0265165043
Transforming coordinates:
 Iter   0:  RMS(Cart)=    0.0328376245 RMS(Int)=    0.0263473566
 Iter   5:  RMS(Cart)=    0.0000003225 RMS(Int)=    0.0000010028
done
Storing new coordinates                 .... done
The predicted energy change is          ....    -0.000813477
Previously predicted energy change      ....    -0.000591797
Actually observed energy change         ....    -0.000823880
Ratio of predicted to observed change   ....     1.392165556
New trust radius                        ....     0.225000000

                                .--------------------.
          ----------------------|Geometry convergence|-------------------------
          Item                value                   Tolerance       Converged
          ---------------------------------------------------------------------
          Energy change      -0.0008238797            0.0000010000      NO
          RMS gradient        0.0036191241            0.0000300000      NO
          MAX gradient        0.0195711144            0.0001000000      NO
          RMS step            0.0265165043            0.0006000000      NO
          MAX step            0.0898298877            0.0010000000      NO
          -------------------------------------------------------------------------
          ........................................................
          Max(Bonds)      0.0475      Max(Angles)    1.40
          Max(Dihed)        4.48      Max(Improp)    0.00
          ---------------------------------------------------------------------

The optimization has not yet converged - more geometry cycles are needed


    ---------------------------------------------------------------------------
                         Redundant Internal Coordinates
                            (Angstroem and degrees)

        Definition                    Value    dE/dq     Step     New-Value
    ----------------------------------------------------------------------------
     1. B(B   3,B   0)                1.5977 -0.001039 -0.0025    1.5952   
     2. B(B   4,B   2)                1.5814 -0.001240 -0.0009    1.5805   
     3. B(B   6,B   5)                1.7886  0.000636  0.0075    1.7961   
     4. B(B   7,B   5)                1.5745  0.005601  0.0010    1.5756   
     5. B(B   7,B   4)                1.5585  0.005047 -0.0017    1.5568   
     6. B(B   8,B   1)                1.5614  0.004068 -0.0046    1.5568   
     7. B(B   8,B   0)                2.5634 -0.000276  0.0475    2.6109   
     8. B(B   8,B   4)                1.8956 -0.000915  0.0146    1.9102   
     9. B(B   8,B   2)                1.7212 -0.000050 -0.0061    1.7150   
    10. B(B   9,B   6)                1.5194 -0.003397 -0.0039    1.5155   
    11. B(B   9,B   5)                1.7882  0.001733 -0.0078    1.7803   
    12. B(B  10,B   1)                1.5316  0.000977  0.0044    1.5360   
    13. B(B  11,B   8)                1.7011 -0.000791 -0.0063    1.6948   
    14. B(B  11,B   2)                1.5726  0.000643 -0.0024    1.5702   
    15. A(B   3,B   0,B   8)           59.81  0.000580   -0.81     59.00   
    16. A(B   8,B   1,B  10)          145.08  0.005065    0.27    145.35   
    17. A(B   8,B   2,B  11)           62.00 -0.000396   -0.08     61.92   
    18. A(B   4,B   2,B   8)           69.91 -0.000093    0.82     70.73   
    19. A(B   4,B   2,B  11)          106.03 -0.000715   -0.27    105.76   
    20. A(B   7,B   4,B   8)           67.69  0.008082   -0.13     67.57   
    21. A(B   2,B   4,B   8)           58.51  0.000337   -0.57     57.94   
    22. A(B   2,B   4,B   7)          121.44  0.009323   -1.40    120.03   
    23. A(B   6,B   5,B   9)           50.27 -0.001439   -0.12     50.15   
    24. A(B   7,B   5,B   9)          167.72  0.004779    0.41    168.13   
    25. A(B   6,B   5,B   7)          120.70  0.005193    0.59    121.29   
    26. A(B   5,B   6,B   9)           64.85  0.001065   -0.48     64.37   
    27. A(B   4,B   7,B   5)          145.35  0.019571    0.41    145.76   
    28. A(B   0,B   8,B   2)           80.68 -0.003091   -0.64     80.03   
    29. A(B   2,B   8,B   4)           51.58 -0.000244   -0.25     51.33   
    30. A(B   1,B   8,B   4)          126.65  0.001184   -0.37    126.28   
    31. A(B   4,B   8,B  11)           88.76 -0.000234   -0.64     88.12   
    32. A(B   0,B   8,B   4)           83.19 -0.000057   -1.02     82.17   
    33. A(B   0,B   8,B  11)           39.84 -0.004470   -0.74     39.10   
    34. A(B   0,B   8,B   1)           94.76  0.005389   -0.56     94.20   
    35. A(B   1,B   8,B  11)          122.23  0.001142   -1.01    121.21   
    36. A(B   2,B   8,B  11)           54.71  0.000356    0.13     54.84   
    37. A(B   1,B   8,B   2)          175.19  0.002359   -0.76    174.44   
    38. A(B   5,B   9,B   6)           64.88  0.000374    0.60     65.48   
    39. A(B   2,B  11,B   8)           63.29  0.000040   -0.06     63.24   
    40. D(B   7,B   4,B   2,B  11)    -24.95 -0.000280    1.96    -22.99   
    41. D(B   8,B   4,B   2,B  11)    -51.30  0.000058   -0.62    -51.92   
    42. D(B   7,B   4,B   2,B   8)     26.35 -0.000338    2.58     28.93   
    43. D(B   9,B   6,B   5,B   7)   -169.77 -0.003260   -0.28   -170.06   
    44. D(B   5,B   7,B   4,B   2)     16.55  0.001838   -4.15     12.39   
    45. D(B   4,B   7,B   5,B   9)     -3.88 -0.001441    3.84     -0.04   
    46. D(B   5,B   7,B   4,B   8)     40.69  0.000138   -1.90     38.80   
    47. D(B   4,B   7,B   5,B   6)     36.05  0.000805    4.48     40.53   
    48. D(B  11,B   8,B   4,B   2)     43.91  0.000604    0.71     44.62   
    49. D(B   1,B   8,B   4,B   2)    174.36  0.002679   -1.50    172.87   
    50. D(B   0,B   8,B   4,B   7)    -72.35 -0.008244    2.44    -69.91   
    51. D(B   0,B   8,B   1,B  10)     10.72  0.001997   -2.53      8.19   
    52. D(B   2,B   8,B   1,B  10)     -7.60 -0.000246   -3.30    -10.91   
    53. D(B   4,B   8,B   1,B  10)    -74.33 -0.001940   -0.75    -75.08   
    54. D(B  11,B   8,B   0,B   3)     82.69 -0.000472    1.26     83.95   
    55. D(B   4,B   8,B   0,B   3)    -13.57 -0.001296    1.00    -12.57   
    56. D(B   1,B   8,B   2,B  11)     51.68 -0.000711   -0.33     51.34   
    57. D(B   2,B   8,B   0,B   3)     38.51 -0.001465    0.79     39.30   
    58. D(B   1,B   8,B   2,B   4)    -70.16 -0.000115   -0.31    -70.48   
    59. D(B   4,B   8,B   2,B  11)    121.84 -0.000596   -1.01    120.83   
    60. D(B  11,B   8,B   2,B   4)   -121.84  0.000596    1.01   -120.83   
    61. D(B   0,B   8,B   4,B   2)     83.48 -0.003893   -0.03     83.45   
    62. D(B   0,B   8,B   2,B  11)     33.16 -0.002998   -0.13     33.04   
    63. D(B   1,B   8,B   0,B   3)   -139.96 -0.002020    1.49   -138.47   
    64. D(B   1,B   8,B   4,B   7)     18.53 -0.001672    0.97     19.50   
    65. D(B   2,B   8,B   4,B   7)   -155.84 -0.004350    2.47   -153.37   
    66. D(B   0,B   8,B   2,B   4)    -88.67 -0.002402    0.89    -87.79   
    67. D(B  11,B   8,B   1,B  10)     41.59  0.000229   -3.46     38.13   
    68. D(B   6,B   9,B   5,B   7)     45.85  0.000820    0.41     46.26   
    69. D(B   2,B  11,B   8,B   0)   -122.59  0.000410    0.48   -122.11   
    70. D(B   8,B  11,B   2,B   4)     56.11  0.000194    1.26     57.38   
    71. D(B   2,B  11,B   8,B   4)    -41.74 -0.000162   -0.36    -42.10   
    72. D(B   2,B  11,B   8,B   1)   -175.54 -0.002174    1.32   -174.23   
    ----------------------------------------------------------------------------

Geometry step timings:
Preparation and reading OPT file:      0.000 s ( 1.039 %)
Internal coordinates            :      0.000 s ( 1.018 %)
B/P matrices and projection     :      0.001 s (13.492 %)
Hessian update/contruction      :      0.001 s (14.955 %)
Making the step                 :      0.002 s (44.103 %)
Converting the step to Cartesian:      0.000 s ( 3.140 %)
Storing new data                :      0.000 s ( 1.633 %)
Checking convergence            :      0.000 s ( 1.994 %)
Final printing                  :      0.001 s (18.583 %)
Total time                      :      0.005 s

Time for energy+gradient        :      0.060 s
Time for complete geometry iter :      0.066 s




    ----------------------------------------------------------------------------
                                  WARNING !!!
       The optimization did not converge but reached the maximum number of
       optimization cycles.
       Please check your results very carefully.
    ----------------------------------------------------------------------------



--------------------------------
SUGGESTED CITATIONS FOR THIS RUN
--------------------------------

Below you find a list of papers that are relevant to this ORCA run
We neither can nor want to force you to cite these papers, but we appreciate if you do
You receive ORCA, which is the product of decades of hard work by many enthusiastic individuals, for free
The only thing we kindly ask in return is that you cite our papers,
We deeply appreciate it, if you show your appreciation for ORCA by not just citing the generic ORCA reference.

Please note that relegating all ORCA citations to the supporting information does *not* help us.
SI sections are not indexed - citations you put there will not count into any citation statistics
But we need these citations in order to attract the funding resources that allow us to do what we are doing

Therefore, if you are a happy ORCA user, please consider citing a few of the papers listed below in the main body of your paper

In addition to the list printed below, the program has created the file random_d1.50_010_m3.bibtex that contains the list in bibtex format
You can import this file easily into all common literature databanks and citation aid programs

It goes without saying that in many instances, there are alternative algorithms to achieve similar
results as the ones you have gotten from ORCA. It is, of course, also the case that in some instances
ORCA just re-implements algorithms worked out by others. We are fully aware of that and we are also
fully appreciative of our colleagues work. Hence this citation list should not be read as indicating
that the listed papers, which are focused on our own work, are the only ones worth citing. It simply
meant to make it easier for users to cite ORCA specific papers. It is not a substitute for doing your
own literature research and citing the relevant literature in a scientifically appropriate manner.

List of essential papers. We consider these as the minimum necessary citations

  1. Bannwarth, C.; Ehlert, S.; Grimme, S.
     GFN2-xTB—An Accurate and Broadly Parametrized Self-Consistent Tight-Binding Quantum Chemical Method with Multipole Electrostatics and Density-Dependent Dispersion Contributions
     J. Chem. Theory Comput. 2019 15(3), 1652-1671
     doi.org/10.1021/acs.jctc.8b01176
  2. Neese, F.
     Software update: the ORCA program system, version 6.0
     WIRES Comput. Molec. Sci. 2025 15(1), e70019
     doi.org/10.1002/wcms.70019

List of papers to cite with high priority. The work reported in these papers was absolutely
necessary for this run to complete.
Our perspective: the developers of density functionals and basis sets usually get cited in chemistry papers
Good! But without the algorithms to do something with them, the functionals or basis sets would not do anything.
Hence, in our opinion, the algorithm design and method developments papers are equally worthy of getting cited

  1. Bannwarth, C.; Caldeweyher, E.; Ehlert, S.; Hansen, A.; Pracht, P.; Seibert, J.; Spicher, S.; Grimme, S.
     Extended tight-binding quantum chemistry methods
     WIRES Comput. Molec. Sci. 2020 11(2), e1493
     doi.org/10.1002/wcms.1493

List of suggested additional citations. These are papers that are important in the 'surrounding' of 
of this run, or papers that preceded the highly important papers. If you like your results we are grateful for a citation.

  1. Neese, F.
     The ORCA program system
     WIRES Comput. Molec. Sci. 2012 2(1), 73-78
     doi.org/10.1002/wcms.81
  2. Neese, F.
     Software update: the ORCA program system, version 4.0
     WIRES Comput. Molec. Sci. 2018 8(1), 1-6
     doi.org/10.1002/wcms.1327
  3. Neese, F.; Wennmohs, F.; Becker, U.; Riplinger, C.
     The ORCA quantum chemistry program package
     J. Chem. Phys. 2020 152(22), 224108
     doi.org/10.1063/5.0004608
  4. Neese, F.
     Software update: The ORCA program system—Version 5.0
     WIRES Comput. Molec. Sci. 2022 12(1), e1606
     doi.org/10.1002/wcms.1606

List of optional additional citations

  1. Neese, F.
     Approximate second-order SCF convergence for spin unrestricted wavefunctions
     Chem. Phys. Lett. 2000 325(1-3), 93-98
     doi.org/10.1016/s0009-2614(00)00662-x

Timings for individual modules:

Sum of individual times          ...        3.036 sec (=   0.051 min)
Geometry relaxation              ...        0.213 sec (=   0.004 min)   7.0 %
XTB module                       ...        2.824 sec (=   0.047 min)  93.0 %
                             ****ORCA TERMINATED NORMALLY****
TOTAL RUN TIME: 0 days 0 hours 0 minutes 3 seconds 623 msec
