
                                 *****************
                                 * O   R   C   A *
                                 *****************

                                            #,                                       
                                            ###                                      
                                            ####                                     
                                            #####                                    
                                            ######                                   
                                           ########,                                 
                                     ,,################,,,,,                         
                               ,,#################################,,                 
                          ,,##########################################,,             
                       ,#########################################, ''#####,          
                    ,#############################################,,   '####,        
                  ,##################################################,,,,####,       
                ,###########''''           ''''###############################       
              ,#####''   ,,,,##########,,,,          '''####'''          '####       
            ,##' ,,,,###########################,,,                        '##       
           ' ,,###''''                  '''############,,,                           
         ,,##''                                '''############,,,,        ,,,,,,###''
      ,#''                                            '''#######################'''  
     '                                                          ''''####''''         
             ,#######,   #######,   ,#######,      ##                                
            ,#'     '#,  ##    ##  ,#'     '#,    #''#        ,####,    ,#,          
            ##       ##  ##   ,#'  ##            #'  '#       #'       ,# #          
            ##       ##  #######   ##           ,######,      #####,      #          
            '#,     ,#'  ##    ##  '#,     ,#' ,#      #,     #,   #      #          
             '#######'   ##     ##  '#######'  #'      '#     '####' #    #          



                #########################################################
                #                        -***-                          #
                #          Department of theory and spectroscopy        #
                #                                                       #
                #                      Frank Neese                      #
                #                                                       #
                #     Directorship, Architecture, Infrastructure        #
                #                    SHARK, DRIVERS                     #
                #        Core code/Algorithms in most modules           #
                #                                                       #
                #        Max Planck Institute fuer Kohlenforschung      #
                #                Kaiser Wilhelm Platz 1                 #
                #                 D-45470 Muelheim/Ruhr                 #
                #                      Germany                          #
                #                                                       #
                #                  All rights reserved                  #
                #                        -***-                          #
                #########################################################


                         Program Version 6.1.1  -  RELEASE   -
                                (GIT: $487d211c$)
                          ($2025-11-21 10:33:24 +0100$)
                                                                         
                                  - NO-DMRG VERSION -                    
                                                                         


 With contributions from (in alphabetic order):
[Max-Planck-Institut fuer Kohlenforschung]                               
  Daniel Aravena         : Magnetic Suceptibility                        
  Michael Atanasov       : Ab Initio Ligand Field Theory (pilot matlab implementation)
  Alexander A. Auer      : GIAO ZORA, VPT2 properties, NMR spectrum      
  Ute Becker             : All parallelization in ORCA, NUMFREQ, NUMCALC 
  Giovanni Bistoni       : ED, misc. LED, open-shell LED, HFLD           
  Dmytro Bykov           : pre 5.0 version of the SCF Hessian            
  Marcos Casanova-Páez   : Triplet and SCS-CIS(D). UHF-(DLPNO)-IP/EA/STEOM-CCSD. UHF-CVS-IP/STEOM-CCSD   
  Vijay G. Chilkuri      : MRCI spin determinant printing, contributions to CSF-ICE 
  Pauline Colinet        : FMM embedding                                 
  Dipayan Datta          : RHF DLPNO-CCSD density                        
  Achintya Kumar Dutta   : EOM-CC, STEOM-CC                              
  Nicolas Foglia         : Exact transition moments, OPA infrastructure, MCD improvements    
  Dmitry Ganyushin       : Spin-Orbit,Spin-Spin,Magnetic field MRCI      
  Miquel Garcia-Rates    : C-PCM and meta-GGA Hessian, CCSD/C-PCM, Gaussian charge scheme 
  Tiago L. C. Gouveia    : GS-ROHF, GS-ROCIS                             
  Yang Guo               : DLPNO-NEVPT2, F12-NEVPT2, CIM, IAO-localization        
  Andreas Hansen         : Spin unrestricted coupled pair/coupled cluster methods 
  Ingolf Harden          : AUTO-CI MPn and infrastructure                
  Benjamin Helmich-Paris : MC-RPA, TRAH-(SCF,CASSCF), AVAS, COSX integrals, SCF dyn. polar., MC-PDFT, srDFT 
  Lee Huntington         : MR-EOM, pCC                                   
  Robert Izsak           : Overlap fitted RIJCOSX, COSX-SCS-MP3, EOM     
  Riya Kayal             : Wick's Theorem for AUTO-CI, AUTO-CI UHF-CCSDT 
  Emily Kempfer          : AUTO-CI RHF CISDT and CCSDT, approximate NEVPT4
  Christian Kollmar      : KDIIS, OOCD, Brueckner-CCSD(T), CCSD density, CASPT2, CASPT2-K, improved NEVPT2 
  Axel Koslowski         : Symmetry handling                             
  Simone Kossmann        : meta-GGA functionals, TD-DFT gradient, OOMP2, (MP2 Hessian; deprecated post 5.0) 
  Lucas Lang             : DCDCAS, Hyperfine gauge corrections, ICE-SOC+SSC
  Marvin Lechner         : AUTO-CI (C++ implementation), FIC-MRCC        
  Spencer Leger          : CASSCF response                               
  Dagmar Lenk            : GEPOL surface, SMD, ORCA-2-JSON               
  Dimitrios Liakos       : Extrapolation schemes; Compound Job, Property file
  Dimitrios Manganas     : Further ROCIS development; embedding schemes. LFT, Crystal Embedding 
  Dimitrios Pantazis     : SARC Basis sets                               
  Anastasios Papadopoulos: AUTO-CI, single reference methods and gradients 
  Taras Petrenko         : pre 6.0 DFT Hessian and TD-DFT gradient,  ECA, NRVS 
  Petra Pikulova         : Analytic Raman intensities                    
  Peter Pinski           : DLPNO-MP2, DLPNO-MP2 Gradient                 
  Shashank Vittal Rao    : ES-AILFT, MagRelax                            
  Christoph Reimann      : Effective Core Potentials                     
  Marius Retegan         : Local ZFS, SOC                                
  Christoph Riplinger    : Optimizer, TS searches, QM/MM, DLPNO-CCSD(T), (RO)-DLPNO pert. Triples 
  Michael Roemelt        : Original ROCIS implementation, recursive CI coupling coefficients
  Masaaki Saitow         : Open-shell DLPNO-CCSD energy and density      
  Barbara Sandhoefer     : DKH picture change effects                    
  Yorick L. A. Schmerwitz: GMF and freeze-and-release deltaSCF, NEB S-IDPP initial path                    
  Kantharuban Sivalingam : CASSCF convergence/infrastructure, NEVPT2, NEVPT3, NEVPT4(SD), FIC-MRCI and CEPA variants
  Bernardo de Souza      : ESD, SOC TD-DFT                               
  Georgi L. Stoychev     : AutoAux, RI-MP2 NMR, DLPNO-MP2 response, X2C  
  Van Anh Tran           : RI-MP2 g-tensors                              
  Willem Van den Heuvel  : Paramagnetic NMR                              
  Zikuan Wang            : NOTCH, Electric field optimization            
  Frank Wennmohs         : Technical directorship and infrastructure     
  Hang Xu                : AUTO-CI-Response properties                   
                                                                         
[FACCTs GmbH]                                                            
  Markus Bursch, Nicolas Foglia, Miquel Garcia-Rates, Ingolf Harden, Hagen Neugebauer, Anastasios Papadopoulos, 
  Christoph Riplinger, Bernardo de Souza, Georgi L. Stoychev                                                    
                                                                 
  APM, various basis sets, CI-OPT, improved COSX, DLPNO-Multilevel,           
  DOCKER, DRACO, updates on ESD, Fragmentator, GOAT, IRC, LR-CPCM, L-BFGS, MBIS, meta-GGA TD-DFT gradient, ML-optimized integration grids, 
  MM, NACMEs, nearIR, NEB, NEB-TS, NL-DFT gradient (VV10), 2- and 3-layer-ONIOM, interface openCOSMO-RS, QMMM,   
  Crystal-QMMM, RESP, rigid body optimization, SF, symmetry and pop. for TD-DFT, various functionals, SOLVATOR                                   
                                                                         
[Other institutions]                                                     
  V. Asgeirsson          : NEB                                           
  Christoph Bannwarth    : sTDA-DFT, sTD-DFT, PBEh-3c, B97-3c, D3        
  Giovanni Bistoni       : ETS/NOCV, ADLD/ADEX, COVALED                  
  Martin Brehm           : Molecular dynamics                            
  Ronald Cardenas        : ETS/NOCV                                      
  Martina Colucci        : COVALED                                       
  Sebastian Ehlert       : rSCAN, r2SCAN, r2SCAN-3c, D4, dhf basis sets  
  Marvin Friede          : D4 for Fr, Ra, Ac-Lr                          
  Lars Goerigk           : TD-DFT with DH, B97 family of functionals     
  Stefan Grimme          : VdW corrections, initial TS optimization, DFT functionals, gCP, sTDA/sTD-DF 
  Waldemar Hujo          : DFT-NL                                        
  H. Jonsson             : NEB                                           
  Holger Kruse           : gCP                                           
  Marcel Mueller         : wB97X-3c, vDZP basis set                      
  Hagen Neugebauer       : wr2SCAN, Native XTB                           
  Gianluca Regni         : ADLD/ADEX                                     
  Tobias Risthaus        : pre 6.0 range-separated hybrid DFT and stability analysis
  Lukas Wittmann         : regularized MP2, r2SCAN double-hybrids, wr2SCAN        
                                                                         
We gratefully acknowledge several colleagues who have allowed us to      
interface, adapt or use parts of their codes:                            
  Ed Valeev, F. Pavosevic, A. Kumar             : LibInt (2-el integral package), F12 methods 
  Garnet Chan, S. Sharma, J. Yang, R. Olivares  : DMRG                   
  Ulf Ekstrom                                   : XCFun DFT Library      
  Mihaly Kallay                                 : mrcc  (arbitrary order and MRCC methods)
  Frank Weinhold                                : gennbo (NPA and NBO analysis)           
  Simon Mueller                                 : openCOSMO-RS                            
  Christopher J. Cramer and Donald G. Truhlar   : smd solvation model                     
  S Lehtola, MJT Oliveira, MAL Marques          : LibXC Library                           
  Liviu Ungur et al                             : ANISO software                          


 Your calculation uses the libint2 library for the computation of 2-el integrals
 For citations please refer to: http://libint.valeyev.net

 Your ORCA version has been built with support for libXC version: 7.0.0
 For citations please refer to: https://libxc.gitlab.io

 This ORCA versions uses:
   CBLAS   interface :  Fast vector & matrix operations
   LAPACKE interface :  Fast linear algebra routines
   SCALAPACK package :  Parallel linear algebra routines
   Shared memory     :  Shared parallel matrices
   BLAS/LAPACK       :  OpenBLAS 0.3.29  USE64BITINT DYNAMIC_ARCH NO_AFFINITY Zen SINGLE_THREADED
        Core in use  :  Zen
   Copyright (c) 2011-2014, The OpenBLAS Project


  ***********************************
  * Starting time: Fri Apr 17 12:14:31 2026
  * Host name:     vmi3233575
  * Process ID:    336113
  * Working dir.:  /root/orca_b12_vps_pack/jobs/01_xtb/mult_3
  ***********************************

NOTE: MaxCore=500 MB was set to SCF,MP2,MDCI,CIPSI,MRCI,RASCI and CIS
      => If you want to overwrite this, your respective input block should be placed after the MaxCore statement


***************************************
The coordinates will be read from file: ../../../starts/random_d1.50_002.xyz
***************************************


Your calculation utilizes the semiempirical GFN2-xTB method
Please cite in your paper:
Bannwarth, C.; Ehlert S.; Grimme, S. J. Chem. Theory Comput. 2019, 15, 1652.
   

================================================================================

================================================================================
                                        WARNINGS
                       Please study these warnings very carefully!
================================================================================


WARNING: Geometry Optimization
  ===> : Switching off AutoStart
         For restart on a previous wavefunction, please use MOREAD

WARNING: Found dipole moment calculation with XTB calculation
  ===> : Switching off dipole moment calculation

Environment variable XTBEXE for xtb has been set!

================================================================================
                                       INPUT FILE
================================================================================
NAME = random_d1.50_002_m3.inp
|  1> ! GFN2-xTB TightSCF TightOpt
|  2> 
|  3> %pal
|  4>   nprocs 1
|  5> end
|  6> 
|  7> %maxcore 500
|  8> 
|  9> * xyzfile 0 3 ../../../starts/random_d1.50_002.xyz
| 10> 
| 11>                          ****END OF INPUT****
================================================================================

                       *****************************
                       * Geometry Optimization Run *
                       *****************************

Geometry optimization settings:
Update method            Update   .... BFGS
Choice of coordinates    CoordSys .... (2022) Redundant Internals
Initial Hessian          InHess   .... Almloef's Model
Max. no of cycles        MaxIter  .... 50

Convergence Tolerances:
Energy Change            TolE     ....  1.0000e-06 Eh
Max. Gradient            TolMAXG  ....  1.0000e-04 Eh/bohr
RMS Gradient             TolRMSG  ....  3.0000e-05 Eh/bohr
Max. Displacement        TolMAXD  ....  1.0000e-03 bohr
RMS Displacement         TolRMSD  ....  6.0000e-04 bohr
Strict Convergence                .... False

------------------------------------------------------------------------------
                        ORCA OPTIMIZATION COORDINATE SETUP
------------------------------------------------------------------------------

The optimization will be done in redundant internal coordinates (2022)
Making redundant internal coordinates   ...  (2022 redundants) done
Evaluating the initial hessian          ...  (Almloef) done
Evaluating the coordinates              ...  done
Calculating the B-matrix                .... done
Calculating the G-matrix                .... done
The number of degrees of freedom        ....  172

    -----------------------------------------------------------------
                    Redundant Internal Coordinates


    -----------------------------------------------------------------
         Definition                    Initial Value    Approx d2E/dq
    -----------------------------------------------------------------
      1. B(B   2,B   0)                  1.3123         1.115158   
      2. B(B   5,B   4)                  2.0496         0.074306   
      3. B(B   6,B   5)                  2.0541         0.073097   
      4. B(B   6,B   2)                  1.4910         0.578416   
      5. B(B   6,B   0)                  1.2337         1.488369   
      6. B(B   7,B   5)                  1.2906         1.207725   
      7. B(B   7,B   4)                  1.1562         1.978644   
      8. B(B   8,B   6)                  1.2763         1.272841   
      9. B(B   8,B   3)                  1.9514         0.106600   
     10. B(B   8,B   7)                  1.9980         0.089800   
     11. B(B   8,B   1)                  1.9394         0.111387   
     12. B(B   9,B   8)                  2.0345         0.078549   
     13. B(B   9,B   3)                  1.4264         0.733380   
     14. B(B  10,B   1)                  3.4524         0.010000   
     15. B(B  10,B   9)                  3.1467         0.010000   
     16. B(B  10,B   8)                  3.0328         0.010000   
     17. B(B  10,B   3)                  2.8431         0.010000   
     18. B(B  11,B   3)                  2.0827         0.065809   
     19. B(B  11,B   1)                  1.4116         0.774259   
     20. B(B  11,B  10)                  2.6657         0.010000   
     21. A(B   2,B   0,B   6)           71.6177         0.590373   
     22. A(B   8,B   1,B  11)           97.7981         0.345726   
     23. A(B  10,B   1,B  11)           45.7152         0.161967   
     24. A(B   8,B   1,B  10)           61.0494         0.136048   
     25. A(B   0,B   2,B   6)           51.7414         0.493815   
     26. A(B   8,B   3,B   9)           72.1836         0.340085   
     27. A(B   9,B   3,B  11)          143.4014         0.314117   
     28. A(B  10,B   3,B  11)           63.3347         0.158314   
     29. A(B   9,B   3,B  10)           88.4750         0.208621   
     30. A(B   8,B   3,B  10)           75.9545         0.166309   
     31. A(B   8,B   3,B  11)           78.2990         0.234491   
     32. A(B   5,B   4,B   7)           35.2178         0.378672   
     33. A(B   4,B   5,B   7)           31.1070         0.348048   
     34. A(B   6,B   5,B   7)           79.0446         0.347088   
     35. A(B   4,B   5,B   6)           94.5602         0.226305   
     36. A(B   0,B   6,B   2)           56.6408         0.521149   
     37. A(B   5,B   6,B   8)           98.4054         0.350174   
     38. A(B   2,B   6,B   5)           97.6640         0.307475   
     39. A(B   0,B   6,B   8)          114.3900         0.605609   
     40. A(B   0,B   6,B   5)          140.9220         0.359586   
     41. A(B   2,B   6,B   8)          101.7744         0.506116   
     42. A(B   4,B   7,B   5)          113.6752         0.633488   
     43. A(B   5,B   7,B   8)          100.6908         0.359393   
     44. A(B   4,B   7,B   8)          113.3445         0.391359   
     45. A(B   1,B   8,B   6)          122.0837         0.376299   
     46. A(B   1,B   8,B   9)          119.7076         0.241949   
     47. A(B   6,B   8,B   9)           91.5488         0.354460   
     48. A(B   3,B   8,B   9)           41.8728         0.240436   
     49. A(B   7,B   8,B  10)           92.5907         0.152512   
     50. A(B   7,B   8,B   9)          134.7989         0.234671   
     51. A(B   1,B   8,B   3)           77.8892         0.252894   
     52. A(B   9,B   8,B  10)           73.8366         0.150617   
     53. A(B   6,B   8,B  10)          152.9608         0.204740   
     54. A(B   3,B   8,B   7)          158.0145         0.245095   
     55. A(B   6,B   8,B   7)           81.6129         0.362626   
     56. A(B   3,B   8,B  10)           65.4240         0.155026   
     57. A(B   1,B   8,B  10)           84.9254         0.155686   
     58. A(B   1,B   8,B   7)          101.0822         0.246655   
     59. A(B   3,B   8,B   6)          117.8610         0.373456   
     60. A(B   3,B   9,B   8)           65.9436         0.323317   
     61. A(B   8,B   9,B  10)           67.7756         0.145049   
     62. A(B   3,B   9,B  10)           64.5804         0.181931   
     63. A(B   1,B  10,B   8)           34.0252         0.107953   
     64. A(B   1,B  10,B   3)           44.4197         0.111192   
     65. A(B   1,B  10,B  11)           22.2773         0.114719   
     66. A(B   8,B  10,B   9)           38.3878         0.113437   
     67. A(B   3,B  10,B   9)           26.9446         0.117614   
     68. A(B   9,B  10,B  11)           69.5335         0.122161   
     69. A(B   3,B  10,B   8)           38.6215         0.120456   
     70. A(B   8,B  10,B  11)           52.6605         0.125455   
     71. A(B   3,B  10,B  11)           44.2811         0.131685   
     72. A(B   1,B  10,B   9)           62.5682         0.106241   
     73. A(B   1,B  11,B   3)           86.5972         0.316898   
     74. A(B   3,B  11,B  10)           72.3843         0.169329   
     75. A(B   1,B  11,B  10)          112.0075         0.229343   
     76. D(B   6,B   5,B   4,B   7)     59.9207         0.010000   
     77. D(B   8,B   6,B   0,B   2)     88.2663         0.121468   
     78. D(B   5,B   6,B   0,B   2)    -56.1205         0.121468   
     79. D(B   0,B   6,B   5,B   7)    142.8909         0.010000   
     80. D(B   8,B   6,B   5,B   4)    -31.7787         0.010000   
     81. D(B   2,B   6,B   5,B   7)     98.4899         0.010000   
     82. D(B   5,B   6,B   2,B   0)    148.1252         0.015569   
     83. D(B   8,B   6,B   2,B   0)   -111.5799         0.015569   
     84. D(B   0,B   6,B   5,B   4)    115.8027         0.010000   
     85. D(B   2,B   6,B   5,B   4)     71.4017         0.010000   
     86. D(B   4,B   7,B   5,B   6)   -118.5254         0.075246   
     87. D(B   8,B   7,B   5,B   6)      3.0143         0.075246   
     88. D(B   8,B   7,B   4,B   5)   -114.1953         0.214282   
     89. D(B   8,B   7,B   5,B   4)    121.5398         0.075246   
     90. D(B   3,B   8,B   1,B  11)     37.7022         0.010000   
     91. D(B   7,B   8,B   3,B   9)    -93.2442         0.010000   
     92. D(B   1,B   8,B   6,B   2)      1.1714         0.112923   
     93. D(B   6,B   8,B   3,B   9)     57.0507         0.010000   
     94. D(B   6,B   8,B   3,B  11)   -144.8657         0.010000   
     95. D(B   1,B   8,B   3,B  10)    -89.9229         0.010000   
     96. D(B   1,B   8,B   3,B  11)    -24.7963         0.010000   
     97. D(B   1,B   8,B   3,B   9)    177.1201         0.010000   
     98. D(B   9,B   8,B   7,B   4)   -159.2391         0.010000   
     99. D(B   6,B   8,B   7,B   4)    116.9554         0.010000   
    100. D(B   3,B   8,B   7,B   4)    -89.3293         0.010000   
    101. D(B   6,B   8,B   3,B  10)    150.0076         0.010000   
    102. D(B   7,B   8,B   6,B   2)    -96.6965         0.112923   
    103. D(B   7,B   8,B   3,B  11)     64.8394         0.010000   
    104. D(B   7,B   8,B   1,B  11)   -119.8725         0.010000   
    105. D(B   1,B   8,B   6,B   0)    -57.3463         0.112923   
    106. D(B   3,B   8,B   7,B   5)    148.8976         0.010000   
    107. D(B   7,B   8,B   1,B  10)    -91.6531         0.010000   
    108. D(B   6,B   8,B   1,B  11)    153.1445         0.010000   
    109. D(B   3,B   8,B   6,B   2)     94.1116         0.112923   
    110. D(B   7,B   8,B   6,B   0)   -155.2142         0.112923   
    111. D(B   1,B   8,B   7,B   4)     -4.2577         0.010000   
    112. D(B   3,B   8,B   6,B   0)     35.5939         0.112923   
    113. D(B   6,B   8,B   1,B  10)   -178.6361         0.010000   
    114. D(B   3,B   8,B   1,B  10)     65.9216         0.010000   
    115. D(B   1,B   8,B   6,B   5)    100.8726         0.112923   
    116. D(B   9,B   8,B   1,B  11)     39.9149         0.010000   
    117. D(B   6,B   8,B   7,B   5)     -4.8178         0.010000   
    118. D(B   1,B   8,B   7,B   5)   -126.0309         0.010000   
    119. D(B   3,B   8,B   6,B   5)   -166.1872         0.112923   
    120. D(B  10,B   9,B   8,B   3)    -71.0102         0.010000   
    121. D(B  10,B   9,B   8,B   1)    -74.2525         0.010000   
    122. D(B   3,B   9,B   8,B  10)     71.0102         0.010000   
    123. D(B   3,B   9,B   8,B   7)    148.2140         0.010000   
    124. D(B   3,B   9,B   8,B   6)   -132.0849         0.010000   
    125. D(B   3,B   9,B   8,B   1)     -3.2423         0.010000   
    126. D(B  10,B   9,B   3,B  11)     37.9228         0.027472   
    127. D(B   8,B   9,B   3,B  10)    -75.7323         0.027472   
    128. D(B   8,B   9,B   3,B  11)    -37.8095         0.027472   
    129. D(B  10,B   9,B   8,B   6)    156.9048         0.010000   
    130. D(B  10,B   9,B   3,B   8)     75.7323         0.027472   
    131. D(B  11,B  10,B   3,B   8)     83.7826         0.010000   
    132. D(B   9,B  10,B   1,B  11)    103.1677         0.010000   
    133. D(B   9,B  10,B   1,B   8)    -35.9575         0.010000   
    134. D(B   8,B  10,B   1,B  11)    139.1252         0.010000   
    135. D(B   3,B  10,B   1,B  11)     78.0360         0.010000   
    136. D(B   3,B  10,B   1,B   8)    -61.0893         0.010000   
    137. D(B  11,B  10,B   3,B   9)    155.7928         0.010000   
    138. D(B  11,B  10,B   1,B   8)   -139.1252         0.010000   
    139. D(B   1,B  10,B   9,B   8)     31.9449         0.010000   
    140. D(B   1,B  10,B   9,B   3)    -40.9955         0.010000   
    141. D(B   8,B  10,B   9,B   3)    -72.9404         0.010000   
    142. D(B   3,B  10,B   9,B   8)     72.9404         0.010000   
    143. D(B  11,B  10,B   9,B   3)    -17.7924         0.010000   
    144. D(B   3,B  10,B   8,B   9)    -43.9495         0.010000   
    145. D(B   3,B  10,B   8,B   7)    179.8923         0.010000   
    146. D(B   3,B  10,B   8,B   6)   -103.5537         0.010000   
    147. D(B   3,B  10,B   8,B   1)     78.9890         0.010000   
    148. D(B  11,B  10,B   8,B   9)   -104.7570         0.010000   
    149. D(B  11,B  10,B   8,B   7)    119.0848         0.010000   
    150. D(B  11,B  10,B   8,B   6)   -164.3612         0.010000   
    151. D(B  11,B  10,B   8,B   3)    -60.8075         0.010000   
    152. D(B  11,B  10,B   8,B   1)     18.1814         0.010000   
    153. D(B  11,B  10,B   9,B   8)     55.1480         0.010000   
    154. D(B   1,B  10,B   3,B   8)     51.6978         0.010000   
    155. D(B   9,B  10,B   3,B  11)   -155.7928         0.010000   
    156. D(B   9,B  10,B   3,B   8)    -72.0102         0.010000   
    157. D(B   8,B  10,B   3,B  11)    -83.7826         0.010000   
    158. D(B   8,B  10,B   3,B   9)     72.0102         0.010000   
    159. D(B   3,B  11,B  10,B   1)     78.7258         0.010000   
    160. D(B   3,B  11,B  10,B   9)     11.4386         0.010000   
    161. D(B   1,B  11,B  10,B   9)    -67.2872         0.010000   
    162. D(B   1,B  11,B  10,B   8)    -27.4239         0.010000   
    163. D(B   1,B  11,B  10,B   3)    -78.7258         0.010000   
    164. D(B  10,B  11,B   3,B   9)    -43.4327         0.010000   
    165. D(B  10,B  11,B   3,B   8)    -80.0184         0.010000   
    166. D(B   1,B  11,B   3,B  10)    114.3770         0.010000   
    167. D(B   1,B  11,B   3,B   9)     70.9442         0.010000   
    168. D(B   1,B  11,B   3,B   8)     34.3586         0.010000   
    169. D(B   3,B  11,B  10,B   8)     51.3019         0.010000   
    170. D(B  10,B  11,B   1,B   8)     35.3084         0.028351   
    171. D(B   3,B  11,B   1,B  10)    -69.4500         0.028351   
    172. D(B   3,B  11,B   1,B   8)    -34.1416         0.028351   
    -----------------------------------------------------------------

Number of atoms                         .... 12
Number of degrees of freedom            .... 172


         *************************************************************
         *                GEOMETRY OPTIMIZATION CYCLE   1            *
         *************************************************************
---------------------------------
CARTESIAN COORDINATES (ANGSTROEM)
---------------------------------
  B    -0.277324   -2.093364   -0.504289
  B     1.202113    0.605259   -1.158615
  B     0.969846   -1.819625   -0.201357
  B    -1.182319    0.397869   -1.661203
  B     1.662675    0.618988    1.758652
  B     0.450244   -0.944649    2.293350
  B    -0.271750   -1.248222    0.394469
  B     0.571309    0.238753    1.792812
  B    -0.226644   -0.041074   -0.017478
  B    -2.122654   -0.160531   -0.745494
  B    -1.259739    2.807142   -0.153673
  B     0.484243    1.639455   -1.797177

----------------------------
CARTESIAN COORDINATES (A.U.)
----------------------------
  NO LB    ZA    FRAG    MASS        X           Y           Z
   0 B   5.0000    0    10.810   -0.524067   -3.955885   -0.952967
   1 B   5.0000    0    10.810    2.271664    1.143773   -2.189465
   2 B   5.0000    0    10.810    1.832743   -3.438592   -0.380509
   3 B   5.0000    0    10.810   -2.234258    0.751863   -3.139218
   4 B   5.0000    0    10.810    3.142001    1.169718    3.323372
   5 B   5.0000    0    10.810    0.850838   -1.785129    4.333803
   6 B   5.0000    0    10.810   -0.513533   -2.358798    0.745439
   7 B   5.0000    0    10.810    1.079618    0.451177    3.387924
   8 B   5.0000    0    10.810   -0.428296   -0.077619   -0.033028
   9 B   5.0000    0    10.810   -4.011235   -0.303359   -1.408779
  10 B   5.0000    0    10.810   -2.380563    5.304729   -0.290400
  11 B   5.0000    0    10.810    0.915087    3.098121   -3.396171

      -----------------------------------------------------------      
     |                   =====================                   |     
     |                           x T B                           |     
     |                   =====================                   |     
     |                         S. Grimme                         |     
     |          Mulliken Center for Theoretical Chemistry        |     
     |                    University of Bonn                     |     
      -----------------------------------------------------------      

   * xtb version 6.6.1 (unknown) compiled by 'builduser@buildhost' on 2023-08-07

   xtb is free software: you can redistribute it and/or modify it under
   the terms of the GNU Lesser General Public License as published by
   the Free Software Foundation, either version 3 of the License, or
   (at your option) any later version.
   
   xtb is distributed in the hope that it will be useful,
   but WITHOUT ANY WARRANTY; without even the implied warranty of
   MERCHANTABILITY or FITNESS FOR A PARTICULAR PURPOSE.  See the
   GNU Lesser General Public License for more details.
   
   Cite this work as:
   * C. Bannwarth, E. Caldeweyher, S. Ehlert, A. Hansen, P. Pracht,
     J. Seibert, S. Spicher, S. Grimme, WIREs Comput. Mol. Sci., 2020, 11,
     e01493. DOI: 10.1002/wcms.1493
   
   for GFN2-xTB:
   * C. Bannwarth, S. Ehlert and S. Grimme., J. Chem. Theory Comput., 2019,
     15, 1652-1671. DOI: 10.1021/acs.jctc.8b01176
   for GFN1-xTB:
   * S. Grimme, C. Bannwarth, P. Shushkov, J. Chem. Theory Comput., 2017,
     13, 1989-2009. DOI: 10.1021/acs.jctc.7b00118
   for GFN0-xTB:
   * P. Pracht, E. Caldeweyher, S. Ehlert, S. Grimme, ChemRxiv, 2019, preprint.
     DOI: 10.26434/chemrxiv.8326202.v1
   for GFN-FF:
   * S. Spicher and S. Grimme, Angew. Chem. Int. Ed., 2020, 59, 15665-15673.
     DOI: 10.1002/anie.202004239
   
   for ALPB and GBSA implicit solvation:
   * S. Ehlert, M. Stahn, S. Spicher, S. Grimme, J. Chem. Theory Comput.,
     2021, 17, 4250-4261. DOI: 10.1021/acs.jctc.1c00471
   
   for DFT-D4:
   * E. Caldeweyher, C. Bannwarth and S. Grimme, J. Chem. Phys., 2017,
     147, 034112. DOI: 10.1063/1.4993215
   * E. Caldeweyher, S. Ehlert, A. Hansen, H. Neugebauer, S. Spicher,
     C. Bannwarth and S. Grimme, J. Chem. Phys., 2019, 150, 154122.
     DOI: 10.1063/1.5090222
   * E. Caldeweyher, J.-M. Mewes, S. Ehlert and S. Grimme, Phys. Chem. Chem. Phys.
     2020, 22, 8499-8512. DOI: 10.1039/D0CP00502A
   
   for sTDA-xTB:
   * S. Grimme and C. Bannwarth, J. Chem. Phys., 2016, 145, 054103.
     DOI: 10.1063/1.4959605
   
   in the mass-spec context:
   * V. Asgeirsson, C. Bauer and S. Grimme, Chem. Sci., 2017, 8, 4879.
     DOI: 10.1039/c7sc00601b
   * J. Koopman and S. Grimme, ACS Omega 2019, 4, 12, 15120-15133.
     DOI: 10.1021/acsomega.9b02011
   
   for metadynamics refer to:
   * S. Grimme, J. Chem. Theory Comput., 2019, 155, 2847-2862
     DOI: 10.1021/acs.jctc.9b00143
   
   for SPH calculations refer to:
   * S. Spicher and S. Grimme, J. Chem. Theory Comput., 2021, 17, 1701-1714
     DOI: 10.1021/acs.jctc.0c01306
   
   with help from (in alphabetical order)
   P. Atkinson, C. Bannwarth, F. Bohle, G. Brandenburg, E. Caldeweyher
   M. Checinski, S. Dohm, S. Ehlert, S. Ehrlich, I. Gerasimov, C. Hölzer
   A. Katbashev, J. Koopman, C. Lavigne, S. Lehtola, F. März, M. Müller,
   F. Musil, H. Neugebauer, J. Pisarek, C. Plett, P. Pracht, F. Pultar,
   J. Seibert, P. Shushkov, S. Spicher, M. Stahn, M. Steiner, T. Strunk,
   J. Stückrath, T. Rose, and J. Unsleber
   
 * started run on 2026/04/17 at 12:14:31.308     

           -------------------------------------------------
          |                Calculation Setup                |
           -------------------------------------------------

          program call               : /usr/bin/xtb random_d1.50_002_m3_XTB.xyz --grad -c 0 -u 2 -P 1 --namespace random_d1.50_002_m3 --input random_d1.50_002_m3_XTB.input.tmp --acc 0.200000
          calculation namespace      : random_d1.50_002_m3
          coordinate file            : random_d1.50_002_m3_XTB.xyz
          omp threads                :                     1

   ID    Z sym.   atoms
    1    5 B      1-12

molecular fragmentation (1/2 indicates fragments):
121211112222
# atoms in fragment 1/2:     6     6
 fragment masses (1/2) :       64.87       64.87
CMA distance (Bohr)    :   5.187
constraining FC (au)   :  0.0500

           -------------------------------------------------
          |                 G F N 2 - x T B                 |
           -------------------------------------------------

        Reference                      10.1021/acs.jctc.8b01176
      * Hamiltonian:
        H0-scaling (s, p, d)           1.850000    2.230000    2.230000
        zeta-weighting                 0.500000
      * Dispersion:
        s8                             2.700000
        a1                             0.520000
        a2                             5.000000
        s9                             5.000000
      * Repulsion:
        kExp                           1.500000    1.000000
        rExp                           1.000000
      * Coulomb:
        alpha                          2.000000
        third order                    shell-resolved
        anisotropic                    true
        a3                             3.000000
        a5                             4.000000
        cn-shift                       1.200000
        cn-exp                         4.000000
        max-rad                        5.000000


          ...................................................
          :                      SETUP                      :
          :.................................................:
          :  # basis functions                  48          :
          :  # atomic orbitals                  48          :
          :  # shells                           24          :
          :  # electrons                        36          :
          :  max. iterations                   250          :
          :  Hamiltonian                  GFN2-xTB          :
          :  restarted?                      false          :
          :  GBSA solvation                  false          :
          :  PC potential                    false          :
          :  electronic temp.          300.0000000     K    :
          :  accuracy                    0.2000000          :
          :  -> integral cutoff          0.3198970E+02      :
          :  -> integral neglect         0.2000000E-08      :
          :  -> SCF convergence          0.2000000E-06 Eh   :
          :  -> wf. convergence          0.2000000E-04 e    :
          :  Broyden damping             0.4000000          :
          ...................................................

 iter      E             dE          RMSdq      gap      omega  full diag
   1    -11.4219586 -0.114220E+02  0.196E+01    0.07       0.0  T
   2      1.7383084  0.131603E+02  0.230E+01    0.75       1.0  T
   3      6.9723193  0.523401E+01  0.256E+01    0.27       1.0  T
   4     -5.3824305 -0.123547E+02  0.178E+01    0.65       1.0  T
   5     -6.0408679 -0.658437E+00  0.158E+01    0.24       1.0  T
   6    -11.8946563 -0.585379E+01  0.111E+01    0.38       1.0  T
   7    -13.3932058 -0.149855E+01  0.896E+00    0.32       1.0  T
   8    -13.2903123  0.102894E+00  0.867E+00    0.32       1.0  T
   9    -12.7323399  0.557972E+00  0.880E+00    0.23       1.0  T
  10    -13.4077092 -0.675369E+00  0.765E+00    0.22       1.0  T
  11    -11.6343768  0.177333E+01  0.859E+00    0.29       1.0  T
  12    -13.2810544 -0.164668E+01  0.637E+00    0.36       1.0  T
  13    -12.9563703  0.324684E+00  0.674E+00    0.11       1.0  T
  14    -13.8834398 -0.927069E+00  0.435E+00    0.18       1.0  T
  15    -13.8965808 -0.131410E-01  0.443E+00    0.14       1.0  T
  16    -13.8907196  0.586111E-02  0.396E+00    0.15       1.0  T
  17    -13.6790905  0.211629E+00  0.467E+00    0.08       1.0  T
  18    -13.4134848  0.265606E+00  0.474E+00    0.09       1.0  T
  19    -13.5988042 -0.185319E+00  0.426E+00    0.06       1.0  T
  20    -13.6039330 -0.512885E-02  0.423E+00    0.06       1.0  T
  21    -13.5990432  0.488985E-02  0.414E+00    0.04       1.0  T
  22    -13.9247977 -0.325755E+00  0.191E+00    0.07       1.0  T
  23    -13.9441547 -0.193569E-01  0.167E+00    0.06       1.0  T
  24    -13.9383303  0.582440E-02  0.186E+00    0.05       1.0  T
  25    -13.9406357 -0.230544E-02  0.184E+00    0.05       1.0  T
  26    -13.9667353 -0.260996E-01  0.138E+00    0.09       1.0  T
  27    -13.9730569 -0.632154E-02  0.112E+00    0.11       1.0  T
  28    -13.9653278  0.772912E-02  0.112E+00    0.12       1.0  T
  29    -13.9527237  0.126040E-01  0.118E+00    0.13       1.0  T
  30    -13.9770246 -0.243008E-01  0.656E-01    0.13       1.0  T
  31    -13.9790938 -0.206928E-02  0.501E-01    0.15       1.0  T
  32    -13.9806865 -0.159261E-02  0.501E-01    0.15       1.0  T
  33    -13.9795165  0.116992E-02  0.383E-01    0.15       1.0  T
  34    -13.9804381 -0.921572E-03  0.449E-01    0.15       1.0  T
  35    -13.9810578 -0.619741E-03  0.268E-01    0.15       1.0  T
  36    -13.9812397 -0.181801E-03  0.177E-01    0.15       1.0  T
  37    -13.9812896 -0.499368E-04  0.147E-01    0.15       1.0  T
  38    -13.9812493  0.402670E-04  0.153E-01    0.14       1.0  T
  39    -13.9812058  0.435271E-04  0.129E-01    0.14       1.0  T
  40    -13.9812532 -0.474461E-04  0.100E-01    0.14       1.0  T
  41    -13.9812826 -0.293191E-04  0.897E-02    0.14       1.0  T
  42    -13.9813405 -0.579885E-04  0.558E-02    0.15       1.0  T
  43    -13.9813684 -0.278338E-04  0.414E-02    0.15       1.0  T
  44    -13.9813931 -0.246710E-04  0.308E-02    0.15       1.0  T
  45    -13.9814106 -0.175686E-04  0.192E-02    0.15       1.5  T
  46    -13.9814147 -0.412408E-05  0.150E-02    0.15       1.9  T
  47    -13.9814169 -0.215724E-05  0.116E-02    0.15       2.5  T
  48    -13.9814171 -0.217457E-06  0.997E-03    0.15       2.9  T
  49    -13.9814174 -0.269600E-06  0.756E-03    0.15       3.8  T
  50    -13.9814176 -0.175831E-06  0.478E-03    0.15       6.0  T
  51    -13.9814178 -0.205282E-06  0.256E-03    0.15      11.3  T
  52    -13.9814179 -0.100307E-06  0.688E-04    0.15      41.9  T
  53    -13.9814179 -0.715486E-08  0.235E-04    0.15     123.0  T
  54    -13.9814179 -0.169759E-09  0.106E-04    0.15     272.5  T
  55    -13.9814179 -0.129527E-09  0.810E-05    0.15     356.4  T

   *** convergence criteria satisfied after 55 iterations ***

         #    Occupation            Energy/Eh            Energy/eV
      -------------------------------------------------------------
         1        2.0000           -0.4487235             -12.2104
       ...           ...                  ...                  ...
        13        2.0000           -0.2769302              -7.5357
        14        2.0000           -0.2719168              -7.3992
        15        2.0000           -0.2537885              -6.9059
        16        2.0000           -0.2413499              -6.5675
        17        1.9997           -0.2370525              -6.4505
        18        1.0003           -0.2218777              -6.0376
        19        0.9447           -0.2146158              -5.8400 (HOMO)
        20        0.0553           -0.2092241              -5.6933 (LUMO)
        21        0.0000           -0.2008636              -5.4658
        22        0.0000           -0.1968210              -5.3558
        23                         -0.1907972              -5.1919
        24                         -0.1805104              -4.9119
       ...                                ...                  ...
        48                          4.5130982             122.8077
      -------------------------------------------------------------
                  HL-Gap            0.0053917 Eh            0.1467 eV
             Fermi-level           -0.2206900 Eh           -6.0053 eV

 transition dipole moment (au) for excitation:          18          19
     X       Y       Z   
  -1.5317  -0.2261  -0.1424  total (au/Debye):    1.555   3.952
 dE (eV)             :    0.198
 oscillator strength :  0.16552E-01

 SCC (total)                   0 d,  0 h,  0 min,  0.070 sec
 SCC setup                      ...        0 min,  0.000 sec (  0.213%)
 Dispersion                     ...        0 min,  0.000 sec (  0.143%)
 classical contributions        ...        0 min,  0.000 sec (  0.048%)
 integral evaluation            ...        0 min,  0.002 sec (  3.235%)
 iterations                     ...        0 min,  0.056 sec ( 79.747%)
 molecular gradient             ...        0 min,  0.007 sec (  9.795%)
 printout                       ...        0 min,  0.005 sec (  6.782%)

         :::::::::::::::::::::::::::::::::::::::::::::::::::::
         ::                     SUMMARY                     ::
         :::::::::::::::::::::::::::::::::::::::::::::::::::::
         :: total energy             -13.074112828337 Eh    ::
         :: gradient norm              1.579817704187 Eh/a0 ::
         :: HOMO-LUMO gap              0.146715433849 eV    ::
         ::.................................................::
         :: SCC energy               -13.981417877917 Eh    ::
         :: -> isotropic ES            0.067513025607 Eh    ::
         :: -> anisotropic ES          0.001351555637 Eh    ::
         :: -> anisotropic XC         -0.024910957328 Eh    ::
         :: -> dispersion             -0.017499983367 Eh    ::
         :: repulsion energy           0.907268751108 Eh    ::
         :: add. restraining           0.000000000000 Eh    ::
         :: total charge               0.000000000032 e     ::
         :::::::::::::::::::::::::::::::::::::::::::::::::::::


Property printout bound to 'properties.out'

           -------------------------------------------------
          | TOTAL ENERGY              -13.074112828337 Eh   |
          | GRADIENT NORM               1.579817704187 Eh/α |
          | HOMO-LUMO GAP               0.146715433849 eV   |
           -------------------------------------------------

------------------------------------------------------------------------
 * finished run on 2026/04/17 at 12:14:31.392     
------------------------------------------------------------------------
 total:
 * wall-time:     0 d,  0 h,  0 min,  0.085 sec
 *  cpu-time:     0 d,  0 h,  0 min,  0.084 sec
 * ratio c/w:     0.997 speedup
 SCF:
 * wall-time:     0 d,  0 h,  0 min,  0.071 sec
 *  cpu-time:     0 d,  0 h,  0 min,  0.070 sec
 * ratio c/w:     0.998 speedup


-------------------------   --------------------
FINAL SINGLE POINT ENERGY       -13.074112828340
-------------------------   --------------------


-------------
DIPOLE MOMENT
-------------
                                X             Y             Z
Total Dipole Moment    :      0.92000      -1.14100       0.03100
                        -----------------------------------------
Magnitude (a.u.)       :      1.46603
Magnitude (Debye)      :      3.72635


------------------
CARTESIAN GRADIENT
------------------

   1   B   :    0.229867833    0.438365637    0.427170669
   2   B   :   -0.006984873    0.056136875   -0.049291052
   3   B   :   -0.321593424   -0.029125844    0.008947330
   4   B   :   -0.058211280   -0.062576164    0.008463891
   5   B   :   -0.795200158   -0.280008645    0.021968081
   6   B   :    0.041201795    0.294244864   -0.106331879
   7   B   :    0.113664106    0.031329329   -0.575307562
   8   B   :    0.757122422   -0.035466020    0.088857463
   9   B   :   -0.023630192   -0.415665064    0.168088780
  10   B   :    0.003081301    0.003752247   -0.030510306
  11   B   :   -0.021274186    0.032166706    0.031995948
  12   B   :    0.081956657   -0.033153920    0.005948637

Difference to translation invariance:
           :    0.0000000000   -0.0000000000   -0.0000000000

Difference to rotation invariance:
           :    0.0000000063    0.0000000140   -0.0000000193

Norm of the Cartesian gradient     ...    1.5798177042
RMS gradient                       ...    0.2633029507
MAX gradient                       ...    0.7952001584
------------------------------------------------------------------------------
                         ORCA GEOMETRY RELAXATION STEP
------------------------------------------------------------------------------

Reading the OPT-File                    .... done
Getting information on internals        .... done
Copying old internal coords+grads       .... done
Making the new internal coordinates     .... (2022 redundants) done
Validating the new internal coordinates .... (2022 redundants) done
Calculating the B-matrix                .... done
Calculating the G,G- and P matrices     .... done
Transforming gradient to internals      .... done
Projecting the internal gradient        .... done
Number of atoms                         ....  12
Number of internal coordinates          .... 172
Current Energy                          ....   -13.074112828 Eh
Current gradient norm                   ....     1.579817704 Eh/bohr
Maximum allowed component of the step   ....  0.300
Current trust radius                    ....  0.300
Evaluating the initial hessian          ....  (Almloef) done
Projecting the Hessian                  .... done
Forming the augmented Hessian           .... done
Diagonalizing the augmented Hessian     .... done
Last element of RFO vector              ....  0.862535141
Lowest eigenvalues of augmented Hessian:
 -0.569336626  0.015911339  0.022834104  0.023479963  0.028401324
Length of the computed step             ....  0.586639477
Warning: the length of the step is outside the trust region - taking restricted step instead
The input lambda is                     ....     0.014077
   iter:   5  x=    0.007209  g=11776.486006 f(x)=    32.050643
   iter:  10  x=   -0.168309  g=    9.138579 f(x)=     1.018909
   iter:  15  x=   -2.128239  g=    0.061227 f(x)=     0.006409
The output lambda is                    ....    -2.133822 (19 iterations)
The final length of the internal step   ....  0.300000000
Converting the step to Cartesian space:
 Initial RMS(Int)=    0.0228747855
Transforming coordinates:
 Iter   0:  RMS(Cart)=    0.0493462970 RMS(Int)=    0.0228863016
 Iter   5:  RMS(Cart)=    0.0000000067 RMS(Int)=    0.0000000039
done
Storing new coordinates                 .... done

                                .--------------------.
          ----------------------|Geometry convergence|-------------------------
          Item                value                   Tolerance       Converged
          ---------------------------------------------------------------------
          RMS gradient        0.0754800676            0.0000300000      NO
          MAX gradient        0.5089764048            0.0001000000      NO
          RMS step            0.0228747855            0.0006000000      NO
          MAX step            0.1478463168            0.0010000000      NO
          -------------------------------------------------------------------------
          ........................................................
          Max(Bonds)      0.0782      Max(Angles)    2.08
          Max(Dihed)        1.09      Max(Improp)    0.00
          ---------------------------------------------------------------------

The optimization has not yet converged - more geometry cycles are needed


    ---------------------------------------------------------------------------
                         Redundant Internal Coordinates
                            (Angstroem and degrees)

        Definition                    Value    dE/dq     Step     New-Value
    ----------------------------------------------------------------------------
     1. B(B   2,B   0)                1.3123 -0.240809  0.0391    1.3514   
     2. B(B   5,B   4)                2.0496 -0.354429  0.0609    2.1105   
     3. B(B   6,B   5)                2.0541 -0.020143  0.0028    2.0568   
     4. B(B   6,B   2)                1.4910 -0.182701  0.0319    1.5229   
     5. B(B   6,B   0)                1.2337 -0.450056  0.0693    1.3030   
     6. B(B   7,B   5)                1.2906 -0.106528  0.0247    1.3153   
     7. B(B   7,B   4)                1.1562 -0.508976  0.0782    1.2344   
     8. B(B   8,B   6)                1.2763 -0.409856  0.0667    1.3430   
     9. B(B   8,B   3)                1.9514 -0.005296  0.0002    1.9515   
    10. B(B   8,B   7)                1.9980  0.024980 -0.0037    1.9944   
    11. B(B   8,B   1)                1.9394  0.025587 -0.0064    1.9330   
    12. B(B   9,B   8)                2.0345  0.005138 -0.0016    2.0329   
    13. B(B   9,B   3)                1.4264 -0.018487  0.0038    1.4301   
    14. B(B  10,B   1)                3.4524  0.002599 -0.0010    3.4513   
    15. B(B  10,B   9)                3.1467  0.011409 -0.0025    3.1442   
    16. B(B  10,B   8)                3.0328 -0.008622  0.0011    3.0340   
    17. B(B  10,B   3)                2.8431  0.022434 -0.0049    2.8382   
    18. B(B  11,B   3)                2.0827  0.040083 -0.0089    2.0738   
    19. B(B  11,B   1)                1.4116 -0.041548  0.0084    1.4201   
    20. B(B  11,B  10)                2.6657  0.031215 -0.0072    2.6586   
    21. A(B   2,B   0,B   6)           71.62  0.109841   -1.69     69.93   
    22. A(B   8,B   1,B  11)           97.80  0.000815   -0.05     97.75   
    23. A(B  10,B   1,B  11)           45.72  0.005354   -0.13     45.58   
    24. A(B   8,B   1,B  10)           61.05 -0.003572    0.08     61.13   
    25. A(B   0,B   2,B   6)           51.74 -0.116282    1.81     53.56   
    26. A(B   8,B   3,B   9)           72.18  0.006751   -0.14     72.04   
    27. A(B   9,B   3,B  11)          143.40 -0.000072   -0.01    143.39   
    28. A(B  10,B   3,B  11)           63.33  0.000806   -0.03     63.31   
    29. A(B   9,B   3,B  10)           88.48 -0.000269    0.01     88.48   
    30. A(B   8,B   3,B  10)           75.95 -0.007141    0.16     76.11   
    31. A(B   8,B   3,B  11)           78.30 -0.009361    0.19     78.49   
    32. A(B   5,B   4,B   7)           35.22 -0.003721    0.22     35.43   
    33. A(B   4,B   5,B   7)           31.11 -0.117387    1.86     32.97   
    34. A(B   6,B   5,B   7)           79.04 -0.026997    0.45     79.49   
    35. A(B   4,B   5,B   6)           94.56 -0.097287    1.57     96.13   
    36. A(B   0,B   6,B   2)           56.64  0.006440   -0.12     56.52   
    37. A(B   5,B   6,B   8)           98.41  0.060140   -0.93     97.48   
    38. A(B   2,B   6,B   5)           97.66 -0.003819    0.11     97.78   
    39. A(B   0,B   6,B   8)          114.39 -0.043473    0.67    115.06   
    40. A(B   0,B   6,B   5)          140.92 -0.005261    0.05    140.97   
    41. A(B   2,B   6,B   8)          101.77  0.000635   -0.16    101.62   
    42. A(B   4,B   7,B   5)          113.68  0.121108   -2.08    111.60   
    43. A(B   5,B   7,B   8)          100.69 -0.057530    0.83    101.52   
    44. A(B   4,B   7,B   8)          113.34 -0.027080    0.53    113.88   
    45. A(B   1,B   8,B   6)          122.08  0.007178   -0.18    121.90   
    46. A(B   1,B   8,B   9)          119.71 -0.001364    0.08    119.79   
    47. A(B   6,B   8,B   9)           91.55 -0.014218    0.25     91.80   
    48. A(B   3,B   8,B   9)           41.87 -0.005401    0.13     42.01   
    49. A(B   7,B   8,B  10)           92.59 -0.007644    0.07     92.66   
    50. A(B   7,B   8,B   9)          134.80  0.010636   -0.24    134.56   
    51. A(B   1,B   8,B   3)           77.89  0.003872   -0.05     77.84   
    52. A(B   9,B   8,B  10)           73.84  0.004558   -0.09     73.75   
    53. A(B   6,B   8,B  10)          152.96 -0.005880    0.14    153.10   
    54. A(B   3,B   8,B   7)          158.01  0.000843   -0.11    157.91   
    55. A(B   6,B   8,B   7)           81.61  0.019566   -0.26     81.35   
    56. A(B   3,B   8,B  10)           65.42  0.008514   -0.18     65.25   
    57. A(B   1,B   8,B  10)           84.93 -0.000823    0.04     84.96   
    58. A(B   1,B   8,B   7)          101.08 -0.011187    0.17    101.25   
    59. A(B   3,B   8,B   6)          117.86 -0.018720    0.34    118.20   
    60. A(B   3,B   9,B   8)           65.94 -0.001350    0.01     65.95   
    61. A(B   8,B   9,B  10)           67.78 -0.005144    0.10     67.88   
    62. A(B   3,B   9,B  10)           64.58  0.004734   -0.11     64.47   
    63. A(B   1,B  10,B   8)           34.03  0.004395   -0.11     33.91   
    64. A(B   1,B  10,B   3)           44.42  0.003534   -0.08     44.34   
    65. A(B   1,B  10,B  11)           22.28 -0.006780    0.15     22.43   
    66. A(B   8,B  10,B   9)           38.39  0.000586   -0.02     38.37   
    67. A(B   3,B  10,B   9)           26.94 -0.004465    0.10     27.05   
    68. A(B   9,B  10,B  11)           69.53 -0.000153   -0.00     69.53   
    69. A(B   3,B  10,B   8)           38.62 -0.001373    0.02     38.64   
    70. A(B   8,B  10,B  11)           52.66 -0.002014    0.02     52.68   
    71. A(B   3,B  10,B  11)           44.28  0.004284   -0.10     44.18   
    72. A(B   1,B  10,B   9)           62.57  0.003239   -0.08     62.49   
    73. A(B   1,B  11,B   3)           86.60  0.005669   -0.12     86.48   
    74. A(B   3,B  11,B  10)           72.38 -0.005090    0.13     72.51   
    75. A(B   1,B  11,B  10)          112.01  0.001426   -0.02    111.99   
    76. D(B   6,B   5,B   4,B   7)     59.92  0.007844   -0.13     59.79   
    77. D(B   8,B   6,B   0,B   2)     88.27  0.033098   -0.71     87.55   
    78. D(B   5,B   6,B   0,B   2)    -56.12 -0.012263    0.06    -56.06   
    79. D(B   0,B   6,B   5,B   7)    142.89 -0.029866    0.48    143.37   
    80. D(B   8,B   6,B   5,B   4)    -31.78  0.042582   -0.61    -32.39   
    81. D(B   2,B   6,B   5,B   7)     98.49 -0.041579    0.59     99.08   
    82. D(B   5,B   6,B   2,B   0)    148.13 -0.008829    0.06    148.18   
    83. D(B   8,B   6,B   2,B   0)   -111.58  0.052703   -0.91   -112.49   
    84. D(B   0,B   6,B   5,B   4)    115.80  0.064639   -1.02    114.79   
    85. D(B   2,B   6,B   5,B   4)     71.40  0.052926   -0.91     70.49   
    86. D(B   4,B   7,B   5,B   6)   -118.53  0.032249   -0.53   -119.05   
    87. D(B   8,B   7,B   5,B   6)      3.01  0.022988   -0.39      2.62   
    88. D(B   8,B   7,B   4,B   5)   -114.20  0.010811   -0.02   -114.22   
    89. D(B   8,B   7,B   5,B   4)    121.54 -0.009261    0.14    121.68   
    90. D(B   3,B   8,B   1,B  11)     37.70  0.005391   -0.12     37.58   
    91. D(B   7,B   8,B   3,B   9)    -93.24 -0.016371    0.25    -92.99   
    92. D(B   1,B   8,B   6,B   2)      1.17  0.018078   -0.32      0.85   
    93. D(B   6,B   8,B   3,B   9)     57.05 -0.004708    0.11     57.16   
    94. D(B   6,B   8,B   3,B  11)   -144.87 -0.001092    0.03   -144.84   
    95. D(B   1,B   8,B   3,B  10)    -89.92  0.004514   -0.10    -90.03   
    96. D(B   1,B   8,B   3,B  11)    -24.80  0.007834   -0.18    -24.98   
    97. D(B   1,B   8,B   3,B   9)    177.12  0.004218   -0.10    177.02   
    98. D(B   9,B   8,B   7,B   4)   -159.24  0.042196   -0.69   -159.93   
    99. D(B   6,B   8,B   7,B   4)    116.96  0.045428   -0.84    116.11   
   100. D(B   3,B   8,B   7,B   4)    -89.33  0.052062   -0.89    -90.22   
   101. D(B   6,B   8,B   3,B  10)    150.01 -0.004412    0.11    150.12   
   102. D(B   7,B   8,B   6,B   2)    -96.70  0.019762   -0.37    -97.06   
   103. D(B   7,B   8,B   3,B  11)     64.84 -0.012755    0.17     65.01   
   104. D(B   7,B   8,B   1,B  11)   -119.87  0.003572    0.00   -119.87   
   105. D(B   1,B   8,B   6,B   0)    -57.35  0.009302   -0.09    -57.44   
   106. D(B   3,B   8,B   7,B   5)    148.90 -0.043362    0.81    149.71   
   107. D(B   7,B   8,B   1,B  10)    -91.65  0.007043   -0.06    -91.72   
   108. D(B   6,B   8,B   1,B  11)    153.14 -0.014004    0.24    153.39   
   109. D(B   3,B   8,B   6,B   2)     94.11  0.014910   -0.26     93.85   
   110. D(B   7,B   8,B   6,B   0)   -155.21  0.010986   -0.14   -155.36   
   111. D(B   1,B   8,B   7,B   4)     -4.26  0.034770   -0.61     -4.87   
   112. D(B   3,B   8,B   6,B   0)     35.59  0.006134   -0.04     35.55   
   113. D(B   6,B   8,B   1,B  10)   -178.64 -0.010532    0.18   -178.46   
   114. D(B   3,B   8,B   1,B  10)     65.92  0.008863   -0.19     65.73   
   115. D(B   1,B   8,B   6,B   5)    100.87  0.028468   -0.45    100.42   
   116. D(B   9,B   8,B   1,B  11)     39.91  0.001889   -0.04     39.88   
   117. D(B   6,B   8,B   7,B   5)     -4.82 -0.049996    0.86     -3.96   
   118. D(B   1,B   8,B   7,B   5)   -126.03 -0.060654    1.09   -124.94   
   119. D(B   3,B   8,B   6,B   5)   -166.19  0.025300   -0.39   -166.58   
   120. D(B  10,B   9,B   8,B   3)    -71.01 -0.007431    0.16    -70.85   
   121. D(B  10,B   9,B   8,B   1)    -74.25 -0.002684    0.05    -74.20   
   122. D(B   3,B   9,B   8,B  10)     71.01  0.007431   -0.16     70.85   
   123. D(B   3,B   9,B   8,B   7)    148.21 -0.004677   -0.03    148.19   
   124. D(B   3,B   9,B   8,B   6)   -132.08  0.007153   -0.11   -132.20   
   125. D(B   3,B   9,B   8,B   1)     -3.24  0.004747   -0.11     -3.36   
   126. D(B  10,B   9,B   3,B  11)     37.92  0.001497   -0.02     37.90   
   127. D(B   8,B   9,B   3,B  10)    -75.73  0.007057   -0.16    -75.89   
   128. D(B   8,B   9,B   3,B  11)    -37.81  0.008554   -0.18    -37.99   
   129. D(B  10,B   9,B   8,B   6)    156.90 -0.000278    0.05    156.96   
   130. D(B  10,B   9,B   3,B   8)     75.73 -0.007057    0.16     75.89   
   131. D(B  11,B  10,B   3,B   8)     83.78 -0.007382    0.14     83.92   
   132. D(B   9,B  10,B   1,B  11)    103.17 -0.001466    0.02    103.19   
   133. D(B   9,B  10,B   1,B   8)    -35.96 -0.000483    0.03    -35.92   
   134. D(B   8,B  10,B   1,B  11)    139.13 -0.000983   -0.01    139.12   
   135. D(B   3,B  10,B   1,B  11)     78.04  0.007033   -0.17     77.86   
   136. D(B   3,B  10,B   1,B   8)    -61.09  0.008016   -0.16    -61.25   
   137. D(B  11,B  10,B   3,B   9)    155.79 -0.000726   -0.00    155.79   
   138. D(B  11,B  10,B   1,B   8)   -139.13  0.000983    0.01   -139.12   
   139. D(B   1,B  10,B   9,B   8)     31.94  0.004013   -0.12     31.83   
   140. D(B   1,B  10,B   9,B   3)    -41.00  0.004977   -0.12    -41.12   
   141. D(B   8,B  10,B   9,B   3)    -72.94  0.000963   -0.00    -72.94   
   142. D(B   3,B  10,B   9,B   8)     72.94 -0.000963    0.00     72.94   
   143. D(B  11,B  10,B   9,B   3)    -17.79 -0.001946    0.03    -17.76   
   144. D(B   3,B  10,B   8,B   9)    -43.95  0.007097   -0.17    -44.12   
   145. D(B   3,B  10,B   8,B   7)    179.89 -0.006020    0.09    179.98   
   146. D(B   3,B  10,B   8,B   6)   -103.55  0.024970   -0.42   -103.97   
   147. D(B   3,B  10,B   8,B   1)     78.99  0.004615   -0.07     78.92   
   148. D(B  11,B  10,B   8,B   9)   -104.76 -0.002076    0.02   -104.74   
   149. D(B  11,B  10,B   8,B   7)    119.08 -0.015192    0.28    119.37   
   150. D(B  11,B  10,B   8,B   6)   -164.36  0.015798   -0.23   -164.59   
   151. D(B  11,B  10,B   8,B   3)    -60.81 -0.009173    0.19    -60.62   
   152. D(B  11,B  10,B   8,B   1)     18.18 -0.004558    0.12     18.30   
   153. D(B  11,B  10,B   9,B   8)     55.15 -0.002909    0.04     55.18   
   154. D(B   1,B  10,B   3,B   8)     51.70  0.004813   -0.13     51.57   
   155. D(B   9,B  10,B   3,B  11)   -155.79  0.000726    0.00   -155.79   
   156. D(B   9,B  10,B   3,B   8)    -72.01 -0.006657    0.14    -71.87   
   157. D(B   8,B  10,B   3,B  11)    -83.78  0.007382   -0.14    -83.92   
   158. D(B   8,B  10,B   3,B   9)     72.01  0.006657   -0.14     71.87   
   159. D(B   3,B  11,B  10,B   1)     78.73  0.003533   -0.07     78.66   
   160. D(B   3,B  11,B  10,B   9)     11.44 -0.001439    0.04     11.48   
   161. D(B   1,B  11,B  10,B   9)    -67.29 -0.004973    0.11    -67.18   
   162. D(B   1,B  11,B  10,B   8)    -27.42 -0.004764    0.09    -27.33   
   163. D(B   1,B  11,B  10,B   3)    -78.73 -0.003533    0.07    -78.66   
   164. D(B  10,B  11,B   3,B   9)    -43.43 -0.001429    0.02    -43.42   
   165. D(B  10,B  11,B   3,B   8)    -80.02  0.003704   -0.09    -80.11   
   166. D(B   1,B  11,B   3,B  10)    114.38  0.000461   -0.00    114.38   
   167. D(B   1,B  11,B   3,B   9)     70.94 -0.000967    0.01     70.96   
   168. D(B   1,B  11,B   3,B   8)     34.36  0.004166   -0.09     34.26   
   169. D(B   3,B  11,B  10,B   8)     51.30 -0.001231    0.03     51.33   
   170. D(B  10,B  11,B   1,B   8)     35.31 -0.000516    0.03     35.34   
   171. D(B   3,B  11,B   1,B  10)    -69.45  0.003331   -0.09    -69.54   
   172. D(B   3,B  11,B   1,B   8)    -34.14  0.002815   -0.06    -34.20   
    ----------------------------------------------------------------------------

Geometry step timings:
Preparation and reading OPT file:      0.000 s ( 0.305 %)
Internal coordinates            :      0.000 s ( 0.523 %)
B/P matrices and projection     :      0.002 s (18.932 %)
Hessian update/contruction      :      0.002 s (14.936 %)
Making the step                 :      0.006 s (49.904 %)
Converting the step to Cartesian:      0.000 s ( 2.452 %)
Storing new data                :      0.000 s ( 0.811 %)
Checking convergence            :      0.000 s ( 0.689 %)
Final printing                  :      0.001 s (11.429 %)
Total time                      :      0.011 s

Time for energy+gradient        :      0.096 s
Time for complete geometry iter :      0.109 s

         *************************************************************
         *                GEOMETRY OPTIMIZATION CYCLE   2            *
         *************************************************************
---------------------------------
CARTESIAN COORDINATES (ANGSTROEM)
---------------------------------
  B    -0.280506   -2.193554   -0.525111
  B     1.194066    0.623952   -1.153209
  B     0.989354   -1.866738   -0.197431
  B    -1.182911    0.425991   -1.669278
  B     1.718890    0.650473    1.774455
  B     0.449947   -0.949647    2.305592
  B    -0.280215   -1.288690    0.412718
  B     0.548600    0.257025    1.790685
  B    -0.235560   -0.018761   -0.022082
  B    -2.128209   -0.135607   -0.754756
  B    -1.268461    2.830472   -0.163767
  B     0.475006    1.665084   -1.797817

----------------------------
CARTESIAN COORDINATES (A.U.)
----------------------------
  NO LB    ZA    FRAG    MASS        X           Y           Z
   0 B   5.0000    0    10.810   -0.530080   -4.145216   -0.992316
   1 B   5.0000    0    10.810    2.256457    1.179098   -2.179248
   2 B   5.0000    0    10.810    1.869608   -3.527623   -0.373090
   3 B   5.0000    0    10.810   -2.235378    0.805005   -3.154478
   4 B   5.0000    0    10.810    3.248231    1.229216    3.353234
   5 B   5.0000    0    10.810    0.850276   -1.794573    4.356938
   6 B   5.0000    0    10.810   -0.529529   -2.435271    0.779923
   7 B   5.0000    0    10.810    1.036705    0.485707    3.383905
   8 B   5.0000    0    10.810   -0.445144   -0.035453   -0.041729
   9 B   5.0000    0    10.810   -4.021733   -0.256261   -1.426282
  10 B   5.0000    0    10.810   -2.397043    5.348817   -0.309474
  11 B   5.0000    0    10.810    0.897630    3.146553   -3.397383

      -----------------------------------------------------------      
     |                   =====================                   |     
     |                           x T B                           |     
     |                   =====================                   |     
     |                         S. Grimme                         |     
     |          Mulliken Center for Theoretical Chemistry        |     
     |                    University of Bonn                     |     
      -----------------------------------------------------------      

   * xtb version 6.6.1 (unknown) compiled by 'builduser@buildhost' on 2023-08-07

   xtb is free software: you can redistribute it and/or modify it under
   the terms of the GNU Lesser General Public License as published by
   the Free Software Foundation, either version 3 of the License, or
   (at your option) any later version.
   
   xtb is distributed in the hope that it will be useful,
   but WITHOUT ANY WARRANTY; without even the implied warranty of
   MERCHANTABILITY or FITNESS FOR A PARTICULAR PURPOSE.  See the
   GNU Lesser General Public License for more details.
   
   Cite this work as:
   * C. Bannwarth, E. Caldeweyher, S. Ehlert, A. Hansen, P. Pracht,
     J. Seibert, S. Spicher, S. Grimme, WIREs Comput. Mol. Sci., 2020, 11,
     e01493. DOI: 10.1002/wcms.1493
   
   for GFN2-xTB:
   * C. Bannwarth, S. Ehlert and S. Grimme., J. Chem. Theory Comput., 2019,
     15, 1652-1671. DOI: 10.1021/acs.jctc.8b01176
   for GFN1-xTB:
   * S. Grimme, C. Bannwarth, P. Shushkov, J. Chem. Theory Comput., 2017,
     13, 1989-2009. DOI: 10.1021/acs.jctc.7b00118
   for GFN0-xTB:
   * P. Pracht, E. Caldeweyher, S. Ehlert, S. Grimme, ChemRxiv, 2019, preprint.
     DOI: 10.26434/chemrxiv.8326202.v1
   for GFN-FF:
   * S. Spicher and S. Grimme, Angew. Chem. Int. Ed., 2020, 59, 15665-15673.
     DOI: 10.1002/anie.202004239
   
   for ALPB and GBSA implicit solvation:
   * S. Ehlert, M. Stahn, S. Spicher, S. Grimme, J. Chem. Theory Comput.,
     2021, 17, 4250-4261. DOI: 10.1021/acs.jctc.1c00471
   
   for DFT-D4:
   * E. Caldeweyher, C. Bannwarth and S. Grimme, J. Chem. Phys., 2017,
     147, 034112. DOI: 10.1063/1.4993215
   * E. Caldeweyher, S. Ehlert, A. Hansen, H. Neugebauer, S. Spicher,
     C. Bannwarth and S. Grimme, J. Chem. Phys., 2019, 150, 154122.
     DOI: 10.1063/1.5090222
   * E. Caldeweyher, J.-M. Mewes, S. Ehlert and S. Grimme, Phys. Chem. Chem. Phys.
     2020, 22, 8499-8512. DOI: 10.1039/D0CP00502A
   
   for sTDA-xTB:
   * S. Grimme and C. Bannwarth, J. Chem. Phys., 2016, 145, 054103.
     DOI: 10.1063/1.4959605
   
   in the mass-spec context:
   * V. Asgeirsson, C. Bauer and S. Grimme, Chem. Sci., 2017, 8, 4879.
     DOI: 10.1039/c7sc00601b
   * J. Koopman and S. Grimme, ACS Omega 2019, 4, 12, 15120-15133.
     DOI: 10.1021/acsomega.9b02011
   
   for metadynamics refer to:
   * S. Grimme, J. Chem. Theory Comput., 2019, 155, 2847-2862
     DOI: 10.1021/acs.jctc.9b00143
   
   for SPH calculations refer to:
   * S. Spicher and S. Grimme, J. Chem. Theory Comput., 2021, 17, 1701-1714
     DOI: 10.1021/acs.jctc.0c01306
   
   with help from (in alphabetical order)
   P. Atkinson, C. Bannwarth, F. Bohle, G. Brandenburg, E. Caldeweyher
   M. Checinski, S. Dohm, S. Ehlert, S. Ehrlich, I. Gerasimov, C. Hölzer
   A. Katbashev, J. Koopman, C. Lavigne, S. Lehtola, F. März, M. Müller,
   F. Musil, H. Neugebauer, J. Pisarek, C. Plett, P. Pracht, F. Pultar,
   J. Seibert, P. Shushkov, S. Spicher, M. Stahn, M. Steiner, T. Strunk,
   J. Stückrath, T. Rose, and J. Unsleber
   
 * started run on 2026/04/17 at 12:14:31.415     

           -------------------------------------------------
          |                Calculation Setup                |
           -------------------------------------------------

          program call               : /usr/bin/xtb random_d1.50_002_m3_XTB.xyz --grad -c 0 -u 2 -P 1 --namespace random_d1.50_002_m3 --input random_d1.50_002_m3_XTB.input.tmp --acc 0.200000
          calculation namespace      : random_d1.50_002_m3
          coordinate file            : random_d1.50_002_m3_XTB.xyz
          omp threads                :                     1

   ID    Z sym.   atoms
    1    5 B      1-12

molecular fragmentation (1/2 indicates fragments):
111111111121
# atoms in fragment 1/2:    11     1
 fragment masses (1/2) :      118.92       10.81
CMA distance (Bohr)    :   6.403
constraining FC (au)   :  0.0500

           -------------------------------------------------
          |                 G F N 2 - x T B                 |
           -------------------------------------------------

        Reference                      10.1021/acs.jctc.8b01176
      * Hamiltonian:
        H0-scaling (s, p, d)           1.850000    2.230000    2.230000
        zeta-weighting                 0.500000
      * Dispersion:
        s8                             2.700000
        a1                             0.520000
        a2                             5.000000
        s9                             5.000000
      * Repulsion:
        kExp                           1.500000    1.000000
        rExp                           1.000000
      * Coulomb:
        alpha                          2.000000
        third order                    shell-resolved
        anisotropic                    true
        a3                             3.000000
        a5                             4.000000
        cn-shift                       1.200000
        cn-exp                         4.000000
        max-rad                        5.000000

q/qsh data taken from xtbrestart
CAMM data taken from xtbrestart

          ...................................................
          :                      SETUP                      :
          :.................................................:
          :  # basis functions                  48          :
          :  # atomic orbitals                  48          :
          :  # shells                           24          :
          :  # electrons                        36          :
          :  max. iterations                   250          :
          :  Hamiltonian                  GFN2-xTB          :
          :  restarted?                       true          :
          :  GBSA solvation                  false          :
          :  PC potential                    false          :
          :  electronic temp.          300.0000000     K    :
          :  accuracy                    0.2000000          :
          :  -> integral cutoff          0.3198970E+02      :
          :  -> integral neglect         0.2000000E-08      :
          :  -> SCF convergence          0.2000000E-06 Eh   :
          :  -> wf. convergence          0.2000000E-04 e    :
          :  Broyden damping             0.4000000          :
          ...................................................

 iter      E             dE          RMSdq      gap      omega  full diag
   1    -13.9150032 -0.139150E+02  0.169E+00    0.07       0.0  T
   2    -12.4105658  0.150444E+01  0.824E+00    0.14       1.0  T
   3    -13.7843803 -0.137381E+01  0.280E+00    0.14       1.0  T
   4    -13.6369272  0.147453E+00  0.398E+00    0.09       1.0  T
   5    -13.8612406 -0.224313E+00  0.205E+00    0.15       1.0  T
   6    -13.8042846  0.569560E-01  0.229E+00    0.07       1.0  T
   7    -13.9078516 -0.103567E+00  0.144E+00    0.14       1.0  T
   8    -13.9175058 -0.965424E-02  0.127E+00    0.06       1.0  T
   9    -13.9273699 -0.986404E-02  0.857E-01    0.10       1.0  T
  10    -13.9335610 -0.619116E-02  0.610E-01    0.08       1.0  T
  11    -13.9380011 -0.444003E-02  0.395E-01    0.10       1.0  T
  12    -13.9381208 -0.119689E-03  0.385E-01    0.11       1.0  T
  13    -13.9382754 -0.154612E-03  0.375E-01    0.11       1.0  T
  14    -13.9390848 -0.809409E-03  0.343E-01    0.11       1.0  T
  15    -13.9391863 -0.101569E-03  0.322E-01    0.11       1.0  T
  16    -13.9394315 -0.245116E-03  0.280E-01    0.11       1.0  T
  17    -13.9397442 -0.312729E-03  0.192E-01    0.11       1.0  T
  18    -13.9398525 -0.108342E-03  0.145E-01    0.10       1.0  T
  19    -13.9399343 -0.818040E-04  0.103E-01    0.10       1.0  T
  20    -13.9400329 -0.985407E-04  0.342E-02    0.10       1.0  T
  21    -13.9400338 -0.890582E-06  0.337E-02    0.10       1.0  T
  22    -13.9400360 -0.224547E-05  0.286E-02    0.10       1.0  T
  23    -13.9400409 -0.487165E-05  0.471E-03    0.10       6.1  T
  24    -13.9400412 -0.292117E-06  0.201E-03    0.10      14.4  T
  25    -13.9400412  0.397898E-08  0.201E-03    0.10      14.4  T
  26    -13.9400412 -0.302676E-07  0.126E-03    0.10      22.9  T
  27    -13.9400412 -0.115472E-07  0.293E-04    0.10      98.6  T
  28    -13.9400412 -0.252694E-09  0.200E-04    0.10     144.1  T
  29    -13.9400412 -0.270925E-09  0.601E-05    0.10     480.4  T
  30    -13.9400412 -0.277200E-10  0.231E-05    0.10    1250.8  T

   *** convergence criteria satisfied after 30 iterations ***

         #    Occupation            Energy/Eh            Energy/eV
      -------------------------------------------------------------
         1        2.0000           -0.4455342             -12.1236
       ...           ...                  ...                  ...
        13        2.0000           -0.2782741              -7.5722
        14        2.0000           -0.2719290              -7.3996
        15        2.0000           -0.2556738              -6.9572
        16        2.0000           -0.2436183              -6.6292
        17        1.9997           -0.2383280              -6.4852
        18        1.0002           -0.2230114              -6.0684
        19        0.8727           -0.2158369              -5.8732 (HOMO)
        20        0.1274           -0.2121801              -5.7737 (LUMO)
        21        0.0000           -0.2029627              -5.5229
        22        0.0000           -0.1999706              -5.4415
        23                         -0.1932370              -5.2582
        24                         -0.1846804              -5.0254
       ...                                ...                  ...
        48                          3.1992419              87.0558
      -------------------------------------------------------------
                  HL-Gap            0.0036568 Eh            0.0995 eV
             Fermi-level           -0.2223382 Eh           -6.0501 eV

 transition dipole moment (au) for excitation:          18          19
     X       Y       Z   
  -1.6949  -0.2370  -0.1794  total (au/Debye):    1.721   4.374
 dE (eV)             :    0.195
 oscillator strength :  0.20030E-01

 SCC (total)                   0 d,  0 h,  0 min,  0.054 sec
 SCC setup                      ...        0 min,  0.000 sec (  0.238%)
 Dispersion                     ...        0 min,  0.000 sec (  0.168%)
 classical contributions        ...        0 min,  0.000 sec (  0.053%)
 integral evaluation            ...        0 min,  0.003 sec (  5.329%)
 iterations                     ...        0 min,  0.040 sec ( 72.761%)
 molecular gradient             ...        0 min,  0.007 sec ( 12.775%)
 printout                       ...        0 min,  0.005 sec (  8.625%)

         :::::::::::::::::::::::::::::::::::::::::::::::::::::
         ::                     SUMMARY                     ::
         :::::::::::::::::::::::::::::::::::::::::::::::::::::
         :: total energy             -13.307288165139 Eh    ::
         :: gradient norm              0.949601075760 Eh/a0 ::
         :: HOMO-LUMO gap              0.099506292897 eV    ::
         ::.................................................::
         :: SCC energy               -13.940041210708 Eh    ::
         :: -> isotropic ES            0.068682749956 Eh    ::
         :: -> anisotropic ES          0.001327473867 Eh    ::
         :: -> anisotropic XC         -0.024865940452 Eh    ::
         :: -> dispersion             -0.018048753533 Eh    ::
         :: repulsion energy           0.632710789726 Eh    ::
         :: add. restraining           0.000000000000 Eh    ::
         :: total charge               0.000000000004 e     ::
         :::::::::::::::::::::::::::::::::::::::::::::::::::::


Property printout bound to 'properties.out'

           -------------------------------------------------
          | TOTAL ENERGY              -13.307288165139 Eh   |
          | GRADIENT NORM               0.949601075760 Eh/α |
          | HOMO-LUMO GAP               0.099506292897 eV   |
           -------------------------------------------------

------------------------------------------------------------------------
 * finished run on 2026/04/17 at 12:14:31.482     
------------------------------------------------------------------------
 total:
 * wall-time:     0 d,  0 h,  0 min,  0.067 sec
 *  cpu-time:     0 d,  0 h,  0 min,  0.067 sec
 * ratio c/w:     0.999 speedup
 SCF:
 * wall-time:     0 d,  0 h,  0 min,  0.054 sec
 *  cpu-time:     0 d,  0 h,  0 min,  0.054 sec
 * ratio c/w:     0.999 speedup


-------------------------   --------------------
FINAL SINGLE POINT ENERGY       -13.307288165140
-------------------------   --------------------


-------------
DIPOLE MOMENT
-------------
                                X             Y             Z
Total Dipole Moment    :      0.86200      -1.22300      -0.01500
                        -----------------------------------------
Magnitude (a.u.)       :      1.49633
Magnitude (Debye)      :      3.80336


------------------
CARTESIAN GRADIENT
------------------

   1   B   :    0.148047452    0.272677980    0.248142323
   2   B   :    0.000304847    0.048253315   -0.044839922
   3   B   :   -0.217882751   -0.026020531    0.013175676
   4   B   :   -0.055692823   -0.059213223    0.004815642
   5   B   :   -0.435953376   -0.149901536    0.004012783
   6   B   :    0.032061857    0.235001065   -0.078542683
   7   B   :    0.082679192    0.030201918   -0.353056239
   8   B   :    0.412236735   -0.102943900    0.088167925
   9   B   :   -0.019870154   -0.256623933    0.112812125
  10   B   :   -0.000741421    0.002125486   -0.028501787
  11   B   :   -0.021738487    0.032877274    0.031956882
  12   B   :    0.076548926   -0.026433914    0.001857275

Difference to translation invariance:
           :    0.0000000000    0.0000000000   -0.0000000000

Difference to rotation invariance:
           :    0.0000000106    0.0000000115   -0.0000000236

Norm of the Cartesian gradient     ...    0.9496010758
RMS gradient                       ...    0.1582668460
[...]
   8   B   :    0.004437310   -0.009034589    0.006603877
   9   B   :    0.000823906   -0.000256759   -0.000538192
  10   B   :    0.000725327   -0.002339308    0.005913148
  11   B   :    0.002318854    0.004699169    0.001576643
  12   B   :    0.000173382   -0.006914683   -0.000386545

Difference to translation invariance:
           :    0.0000000000    0.0000000000   -0.0000000000

Difference to rotation invariance:
           :    0.0000000041    0.0000000108    0.0000000008

Norm of the Cartesian gradient     ...    0.0246104589
RMS gradient                       ...    0.0041017431
MAX gradient                       ...    0.0090345887
------------------------------------------------------------------------------
                         ORCA GEOMETRY RELAXATION STEP
------------------------------------------------------------------------------

Reading the OPT-File                    .... done
Getting information on internals        .... done
Copying old internal coords+grads       .... done
Making the new internal coordinates     .... (2022 redundants) done
Validating the new internal coordinates .... (2022 redundants) done
Calculating the B-matrix                .... done
Calculating the G,G- and P matrices     .... done
Transforming gradient to internals      .... done
Projecting the internal gradient        .... done
Number of atoms                         ....  12
Number of internal coordinates          .... 133
Current Energy                          ....   -14.162652908 Eh
Current gradient norm                   ....     0.024610459 Eh/bohr
Maximum allowed component of the step   ....  0.300
Current trust radius                    ....  0.700
Updating the Hessian (BFGS)             .... done
Forming the augmented Hessian           .... done
Diagonalizing the augmented Hessian     .... done
Last element of RFO vector              ....  0.948796075
Lowest eigenvalues of augmented Hessian:
 -0.001301293  0.000065160  0.000106561  0.000436568  0.000918291
Length of the computed step             ....  0.332936910
The final length of the internal step   ....  0.332936910
Converting the step to Cartesian space:
 Initial RMS(Int)=    0.0288692914
Transforming coordinates:
 Iter   0:  RMS(Cart)=    0.0221622004 RMS(Int)=    0.5437678370
 Iter   5:  RMS(Cart)=    0.0000123686 RMS(Int)=    0.0000488760
done
Storing new coordinates                 .... done
The predicted energy change is          ....    -0.000722769
Previously predicted energy change      ....    -0.000427467
Actually observed energy change         ....    -0.000569992
Ratio of predicted to observed change   ....     1.333417023
New trust radius                        ....     0.700000000

                                .--------------------.
          ----------------------|Geometry convergence|-------------------------
          Item                value                   Tolerance       Converged
          ---------------------------------------------------------------------
          Energy change      -0.0005699920            0.0000010000      NO
          RMS gradient        0.0013887445            0.0000300000      NO
          MAX gradient        0.0079642488            0.0001000000      NO
          RMS step            0.0288692914            0.0006000000      NO
          MAX step            0.1358878267            0.0010000000      NO
          -------------------------------------------------------------------------
          ........................................................
          Max(Bonds)      0.0328      Max(Angles)    2.28
          Max(Dihed)        7.79      Max(Improp)    0.00
          ---------------------------------------------------------------------

The optimization has not yet converged - more geometry cycles are needed


    ---------------------------------------------------------------------------
                         Redundant Internal Coordinates
                            (Angstroem and degrees)

        Definition                    Value    dE/dq     Step     New-Value
    ----------------------------------------------------------------------------
     1. B(B   2,B   1)                1.5994  0.005083 -0.0055    1.5939   
     2. B(B   2,B   0)                1.5275  0.000529  0.0018    1.5293   
     3. B(B   3,B   1)                1.8958  0.002847 -0.0041    1.8918   
     4. B(B   6,B   5)                1.5176 -0.000187  0.0000    1.5176   
     5. B(B   6,B   0)                1.5105  0.001962 -0.0053    1.5052   
     6. B(B   7,B   4)                1.4621 -0.001164 -0.0009    1.4612   
     7. B(B   7,B   5)                1.5491 -0.001722  0.0061    1.5552   
     8. B(B   8,B   5)                1.7994 -0.002369  0.0328    1.8322   
     9. B(B   8,B   2)                1.8998  0.000846 -0.0206    1.8792   
    10. B(B   8,B   7)                1.6270  0.001031 -0.0094    1.6176   
    11. B(B   8,B   0)                2.0755  0.000294  0.0077    2.0832   
    12. B(B   9,B   8)                1.5828 -0.000440  0.0050    1.5879   
    13. B(B   9,B   3)                1.5824  0.005451 -0.0077    1.5747   
    14. B(B   9,B   2)                1.7173  0.001502 -0.0198    1.6975   
    15. B(B  10,B   3)                1.5282  0.000248  0.0016    1.5298   
    16. B(B  11,B  10)                1.4941  0.004316 -0.0074    1.4867   
    17. B(B  11,B   3)                1.9464  0.001943 -0.0045    1.9419   
    18. B(B  11,B   1)                1.5424 -0.002627  0.0042    1.5466   
    19. A(B   6,B   0,B   8)           78.22 -0.000206   -0.19     78.03   
    20. A(B   2,B   0,B   8)           61.44  0.000176   -1.08     60.36   
    21. A(B   2,B   0,B   6)          139.32 -0.000046   -1.11    138.21   
    22. A(B   2,B   1,B   3)          111.35 -0.000560    0.44    111.78   
    23. A(B   2,B   1,B  11)          171.43 -0.000622    1.59    173.02   
    24. A(B   3,B   1,B  11)           68.07  0.000432   -0.17     67.89   
    25. A(B   0,B   2,B   8)           73.64 -0.000220    0.88     74.52   
    26. A(B   0,B   2,B   1)          168.32  0.000184   -0.74    167.57   
    27. A(B   1,B   2,B   9)           64.58  0.000532   -0.73     63.85   
    28. A(B   0,B   2,B   9)          124.27 -0.000736    1.70    125.97   
    29. A(B   8,B   2,B   9)           51.60 -0.000457    0.79     52.39   
    30. A(B   1,B   2,B   8)          116.07  0.000048   -0.14    115.93   
    31. A(B   1,B   3,B   9)           60.56  0.000343   -1.16     59.40   
    32. A(B   9,B   3,B  11)          107.87 -0.001021   -0.70    107.17   
    33. A(B   1,B   3,B  10)           96.29 -0.000283    0.05     96.34   
    34. A(B   9,B   3,B  10)          156.36 -0.000016    0.04    156.40   
    35. A(B   1,B   3,B  11)           47.31 -0.001361    0.25     47.57   
    36. A(B  10,B   3,B  11)           49.14  0.001069   -0.19     48.96   
    37. A(B   7,B   5,B   8)           57.56  0.001119   -1.25     56.31   
    38. A(B   6,B   5,B   8)           87.57  0.001132   -1.21     86.36   
    39. A(B   6,B   5,B   7)          144.67  0.002173   -2.28    142.39   
    40. A(B   0,B   6,B   5)          113.01 -0.001203    1.62    114.64   
    41. A(B   4,B   7,B   5)           98.18  0.007964   -0.73     97.45   
    42. A(B   5,B   7,B   8)           68.97 -0.000833    1.51     70.48   
    43. A(B   4,B   7,B   8)          166.99  0.007208    1.27    168.27   
    44. A(B   2,B   8,B   5)          125.40  0.000292   -0.04    125.36   
    45. A(B   7,B   8,B   9)          122.95 -0.000396    0.60    123.55   
    46. A(B   5,B   8,B   9)          176.27 -0.000707    0.30    176.57   
    47. A(B   0,B   8,B   5)           81.00  0.000273   -0.27     80.73   
    48. A(B   2,B   8,B   9)           58.24  0.000400   -0.36     57.88   
    49. A(B   0,B   8,B   9)          102.51  0.000389   -0.12    102.39   
    50. A(B   0,B   8,B   2)           44.92  0.000044    0.20     45.12   
    51. A(B   5,B   8,B   7)           53.47 -0.000286   -0.26     53.21   
    52. A(B   2,B   8,B   7)          176.53  0.000055    0.08    176.61   
    53. A(B   0,B   8,B   7)          134.37 -0.000028   -0.39    133.98   
    54. A(B   3,B   9,B   8)          166.41  0.000383    0.05    166.46   
    55. A(B   2,B   9,B   8)           70.16  0.000057   -0.43     69.72   
    56. A(B   2,B   9,B   3)          122.33 -0.000410    1.44    123.76   
    57. A(B   3,B  10,B  11)           80.18 -0.000437   -0.04     80.13   
    58. A(B   3,B  11,B  10)           50.68 -0.000633    0.23     50.91   
    59. A(B   1,B  11,B  10)          115.07  0.000306    0.13    115.20   
    60. A(B   1,B  11,B   3)           64.62  0.000929   -0.08     64.54   
    61. D(B   9,B   2,B   1,B   3)      7.60  0.000371   -0.57      7.03   
    62. D(B   8,B   2,B   0,B   6)      8.18  0.000183    0.28      8.46   
    63. D(B   9,B   2,B   0,B   6)     18.66  0.000429   -0.31     18.35   
    64. D(B   9,B   2,B   0,B   8)     10.48  0.000245   -0.59      9.89   
    65. D(B   1,B   2,B   0,B   6)    155.56  0.000018    1.35    156.91   
    66. D(B   0,B   2,B   1,B  11)    -49.33  0.000274    5.45    -43.88   
    67. D(B   1,B   2,B   0,B   8)    147.38 -0.000165    1.07    148.45   
    68. D(B   8,B   2,B   1,B  11)     95.51  0.000121    5.15    100.66   
    69. D(B   8,B   2,B   1,B   3)     11.14  0.000769   -1.90      9.24   
    70. D(B   0,B   2,B   1,B   3)   -133.70  0.000922   -2.85   -136.55   
    71. D(B  10,B   3,B   1,B   2)    166.37 -0.000604    1.51    167.88   
    72. D(B  10,B   3,B   1,B  11)     -4.44  0.000026   -0.19     -4.63   
    73. D(B   9,B   3,B   1,B  11)   -179.37  0.000407   -1.09   -180.46   
    74. D(B  11,B   3,B   1,B   2)    170.80 -0.000630    1.70    172.51   
    75. D(B   9,B   3,B   1,B   2)     -8.56 -0.000223    0.62     -7.95   
    76. D(B   0,B   6,B   5,B   8)     -4.16 -0.000033    0.07     -4.10   
    77. D(B   0,B   6,B   5,B   7)    -12.91 -0.001075    1.77    -11.13   
    78. D(B   5,B   6,B   0,B   8)      3.68 -0.000014   -0.11      3.58   
    79. D(B   5,B   6,B   0,B   2)     -3.65 -0.000196   -0.54     -4.19   
    80. D(B   4,B   7,B   5,B   6)   -167.51  0.000060   -0.84   -168.36   
    81. D(B   4,B   7,B   5,B   8)   -177.88 -0.001057    0.94   -176.94   
    82. D(B   8,B   7,B   5,B   6)     10.36  0.001118   -1.78      8.59   
    83. D(B   9,B   8,B   0,B   2)     -9.62 -0.000428    0.19     -9.43   
    84. D(B   7,B   8,B   0,B   6)      0.65  0.000209   -0.56      0.09   
    85. D(B   0,B   8,B   2,B   1)   -173.02 -0.000075    0.73   -172.29   
    86. D(B   7,B   8,B   0,B   2)    175.22  0.000078   -0.33    174.89   
    87. D(B   5,B   8,B   0,B   6)     -2.89 -0.000044    0.05     -2.84   
    88. D(B   0,B   8,B   2,B   9)   -168.94  0.000428   -0.31   -169.25   
    89. D(B   5,B   8,B   0,B   2)    171.67 -0.000175    0.28    171.95   
    90. D(B   5,B   8,B   2,B   0)    -10.11 -0.000258    0.28     -9.83   
    91. D(B   2,B   8,B   0,B   6)   -174.56  0.000131   -0.23   -174.79   
    92. D(B   2,B   8,B   7,B   5)     72.28 -0.000220    2.35     74.63   
    93. D(B   2,B   8,B   7,B   4)     81.65  0.000032    0.46     82.11   
    94. D(B   0,B   8,B   7,B   4)      5.01 -0.000078   -1.16      3.85   
    95. D(B   9,B   8,B   5,B   6)   -157.47  0.000191    0.59   -156.87   
    96. D(B   7,B   8,B   5,B   6)   -174.02  0.000314   -0.44   -174.47   
    97. D(B   2,B   8,B   5,B   7)   -175.94 -0.000055    0.12   -175.82   
    98. D(B   2,B   8,B   5,B   6)     10.03  0.000259   -0.32      9.71   
    99. D(B   0,B   8,B   5,B   7)    176.85 -0.000238    0.39    177.23   
   100. D(B   0,B   8,B   5,B   6)      2.82  0.000076   -0.06      2.77   
   101. D(B   7,B   8,B   2,B   1)    106.98 -0.000128   -1.26    105.72   
   102. D(B   0,B   8,B   7,B   5)     -4.36 -0.000331    0.73     -3.63   
   103. D(B   7,B   8,B   2,B   0)    -80.00 -0.000054   -1.98    -81.99   
   104. D(B   5,B   8,B   2,B   9)   -179.05  0.000170   -0.03   -179.08   
   105. D(B   5,B   8,B   7,B   4)      9.37  0.000252   -1.89      7.48   
   106. D(B   9,B   8,B   7,B   4)   -169.36  0.000477   -1.55   -170.91   
   107. D(B   5,B   8,B   2,B   1)    176.87 -0.000332    1.01    177.88   
   108. D(B   3,B   9,B   8,B   2)   -157.91  0.000066   -1.51   -159.42   
   109. D(B   3,B   9,B   8,B   0)   -149.93  0.000392   -1.76   -151.69   
   110. D(B   2,B   9,B   8,B   7)   -176.14 -0.000089   -0.05   -176.19   
   111. D(B   2,B   9,B   8,B   0)      7.98  0.000325   -0.24      7.73   
   112. D(B   8,B   9,B   3,B  10)    151.38 -0.000517    4.90    156.28   
   113. D(B   8,B   9,B   3,B   1)    164.04  0.000446    0.34    164.38   
   114. D(B   2,B   9,B   3,B  11)      8.30  0.000110    0.33      8.64   
   115. D(B   2,B   9,B   3,B  10)     -3.86 -0.000552    3.92      0.06   
   116. D(B   2,B   9,B   3,B   1)      8.79  0.000411   -0.64      8.16   
   117. D(B   8,B   9,B   2,B   1)    175.94 -0.000480    1.16    177.11   
   118. D(B   2,B   9,B   8,B   5)    168.02  0.000162   -0.91    167.11   
   119. D(B   8,B   9,B   2,B   0)    -12.87 -0.000371    0.63    -12.25   
   120. D(B   3,B   9,B   2,B   8)    174.00  0.000177   -0.43    173.56   
   121. D(B   3,B   9,B   2,B   1)    -10.06 -0.000304    0.73     -9.33   
   122. D(B   3,B   9,B   8,B   5)     10.12  0.000228   -2.42      7.70   
   123. D(B   3,B   9,B   2,B   0)    161.13 -0.000194    0.19    161.32   
   124. D(B  11,B  10,B   3,B   9)     15.38  0.000681   -4.37     11.01   
   125. D(B  11,B  10,B   3,B   1)      4.31 -0.000190    0.15      4.46   
   126. D(B   1,B  11,B  10,B   3)     -5.82  0.000066   -0.24     -6.06   
   127. D(B  10,B  11,B   3,B   9)   -173.58  0.000245   -1.19   -174.77   
   128. D(B  10,B  11,B   3,B   1)   -174.16 -0.000126    0.23   -173.93   
   129. D(B   1,B  11,B   3,B  10)    174.16  0.000126   -0.23    173.93   
   130. D(B   1,B  11,B   3,B   9)      0.58  0.000371   -1.42     -0.84   
   131. D(B  10,B  11,B   1,B   3)      4.98 -0.000140    0.14      5.13   
   132. D(B  10,B  11,B   1,B   2)    -82.78  0.000348   -7.64    -90.43   
   133. D(B   3,B  11,B   1,B   2)    -87.77  0.000488   -7.79    -95.55   
    ----------------------------------------------------------------------------

Geometry step timings:
Preparation and reading OPT file:      0.000 s ( 0.741 %)
Internal coordinates            :      0.000 s ( 0.896 %)
B/P matrices and projection     :      0.001 s (22.971 %)
Hessian update/contruction      :      0.001 s (20.489 %)
Making the step                 :      0.002 s (29.709 %)
Converting the step to Cartesian:      0.000 s ( 4.205 %)
Storing new data                :      0.000 s ( 1.344 %)
Checking convergence            :      0.000 s ( 1.430 %)
Final printing                  :      0.001 s (18.180 %)
Total time                      :      0.006 s

Time for energy+gradient        :      0.065 s
Time for complete geometry iter :      0.073 s




    ----------------------------------------------------------------------------
                                  WARNING !!!
       The optimization did not converge but reached the maximum number of
       optimization cycles.
       Please check your results very carefully.
    ----------------------------------------------------------------------------



--------------------------------
SUGGESTED CITATIONS FOR THIS RUN
--------------------------------

Below you find a list of papers that are relevant to this ORCA run
We neither can nor want to force you to cite these papers, but we appreciate if you do
You receive ORCA, which is the product of decades of hard work by many enthusiastic individuals, for free
The only thing we kindly ask in return is that you cite our papers,
We deeply appreciate it, if you show your appreciation for ORCA by not just citing the generic ORCA reference.

Please note that relegating all ORCA citations to the supporting information does *not* help us.
SI sections are not indexed - citations you put there will not count into any citation statistics
But we need these citations in order to attract the funding resources that allow us to do what we are doing

Therefore, if you are a happy ORCA user, please consider citing a few of the papers listed below in the main body of your paper

In addition to the list printed below, the program has created the file random_d1.50_002_m3.bibtex that contains the list in bibtex format
You can import this file easily into all common literature databanks and citation aid programs

It goes without saying that in many instances, there are alternative algorithms to achieve similar
results as the ones you have gotten from ORCA. It is, of course, also the case that in some instances
ORCA just re-implements algorithms worked out by others. We are fully aware of that and we are also
fully appreciative of our colleagues work. Hence this citation list should not be read as indicating
that the listed papers, which are focused on our own work, are the only ones worth citing. It simply
meant to make it easier for users to cite ORCA specific papers. It is not a substitute for doing your
own literature research and citing the relevant literature in a scientifically appropriate manner.

List of essential papers. We consider these as the minimum necessary citations

  1. Bannwarth, C.; Ehlert, S.; Grimme, S.
     GFN2-xTB—An Accurate and Broadly Parametrized Self-Consistent Tight-Binding Quantum Chemical Method with Multipole Electrostatics and Density-Dependent Dispersion Contributions
     J. Chem. Theory Comput. 2019 15(3), 1652-1671
     doi.org/10.1021/acs.jctc.8b01176
  2. Neese, F.
     Software update: the ORCA program system, version 6.0
     WIRES Comput. Molec. Sci. 2025 15(1), e70019
     doi.org/10.1002/wcms.70019

List of papers to cite with high priority. The work reported in these papers was absolutely
necessary for this run to complete.
Our perspective: the developers of density functionals and basis sets usually get cited in chemistry papers
Good! But without the algorithms to do something with them, the functionals or basis sets would not do anything.
Hence, in our opinion, the algorithm design and method developments papers are equally worthy of getting cited

  1. Bannwarth, C.; Caldeweyher, E.; Ehlert, S.; Hansen, A.; Pracht, P.; Seibert, J.; Spicher, S.; Grimme, S.
     Extended tight-binding quantum chemistry methods
     WIRES Comput. Molec. Sci. 2020 11(2), e1493
     doi.org/10.1002/wcms.1493

List of suggested additional citations. These are papers that are important in the 'surrounding' of 
of this run, or papers that preceded the highly important papers. If you like your results we are grateful for a citation.

  1. Neese, F.
     The ORCA program system
     WIRES Comput. Molec. Sci. 2012 2(1), 73-78
     doi.org/10.1002/wcms.81
  2. Neese, F.
     Software update: the ORCA program system, version 4.0
     WIRES Comput. Molec. Sci. 2018 8(1), 1-6
     doi.org/10.1002/wcms.1327
  3. Neese, F.; Wennmohs, F.; Becker, U.; Riplinger, C.
     The ORCA quantum chemistry program package
     J. Chem. Phys. 2020 152(22), 224108
     doi.org/10.1063/5.0004608
  4. Neese, F.
     Software update: The ORCA program system—Version 5.0
     WIRES Comput. Molec. Sci. 2022 12(1), e1606
     doi.org/10.1002/wcms.1606

List of optional additional citations

  1. Neese, F.
     Approximate second-order SCF convergence for spin unrestricted wavefunctions
     Chem. Phys. Lett. 2000 325(1-3), 93-98
     doi.org/10.1016/s0009-2614(00)00662-x

Timings for individual modules:

Sum of individual times          ...        3.818 sec (=   0.064 min)
Geometry relaxation              ...        0.545 sec (=   0.009 min)  14.3 %
XTB module                       ...        3.273 sec (=   0.055 min)  85.7 %
                             ****ORCA TERMINATED NORMALLY****
TOTAL RUN TIME: 0 days 0 hours 0 minutes 4 seconds 342 msec
