
                                 *****************
                                 * O   R   C   A *
                                 *****************

                                            #,                                       
                                            ###                                      
                                            ####                                     
                                            #####                                    
                                            ######                                   
                                           ########,                                 
                                     ,,################,,,,,                         
                               ,,#################################,,                 
                          ,,##########################################,,             
                       ,#########################################, ''#####,          
                    ,#############################################,,   '####,        
                  ,##################################################,,,,####,       
                ,###########''''           ''''###############################       
              ,#####''   ,,,,##########,,,,          '''####'''          '####       
            ,##' ,,,,###########################,,,                        '##       
           ' ,,###''''                  '''############,,,                           
         ,,##''                                '''############,,,,        ,,,,,,###''
      ,#''                                            '''#######################'''  
     '                                                          ''''####''''         
             ,#######,   #######,   ,#######,      ##                                
            ,#'     '#,  ##    ##  ,#'     '#,    #''#        ,####,    ,#,          
            ##       ##  ##   ,#'  ##            #'  '#       #'       ,# #          
            ##       ##  #######   ##           ,######,      #####,      #          
            '#,     ,#'  ##    ##  '#,     ,#' ,#      #,     #,   #      #          
             '#######'   ##     ##  '#######'  #'      '#     '####' #    #          



                #########################################################
                #                        -***-                          #
                #          Department of theory and spectroscopy        #
                #                                                       #
                #                      Frank Neese                      #
                #                                                       #
                #     Directorship, Architecture, Infrastructure        #
                #                    SHARK, DRIVERS                     #
                #        Core code/Algorithms in most modules           #
                #                                                       #
                #        Max Planck Institute fuer Kohlenforschung      #
                #                Kaiser Wilhelm Platz 1                 #
                #                 D-45470 Muelheim/Ruhr                 #
                #                      Germany                          #
                #                                                       #
                #                  All rights reserved                  #
                #                        -***-                          #
                #########################################################


                         Program Version 6.1.1  -  RELEASE   -
                                (GIT: $487d211c$)
                          ($2025-11-21 10:33:24 +0100$)
                                                                         
                                  - NO-DMRG VERSION -                    
                                                                         


 With contributions from (in alphabetic order):
[Max-Planck-Institut fuer Kohlenforschung]                               
  Daniel Aravena         : Magnetic Suceptibility                        
  Michael Atanasov       : Ab Initio Ligand Field Theory (pilot matlab implementation)
  Alexander A. Auer      : GIAO ZORA, VPT2 properties, NMR spectrum      
  Ute Becker             : All parallelization in ORCA, NUMFREQ, NUMCALC 
  Giovanni Bistoni       : ED, misc. LED, open-shell LED, HFLD           
  Dmytro Bykov           : pre 5.0 version of the SCF Hessian            
  Marcos Casanova-Páez   : Triplet and SCS-CIS(D). UHF-(DLPNO)-IP/EA/STEOM-CCSD. UHF-CVS-IP/STEOM-CCSD   
  Vijay G. Chilkuri      : MRCI spin determinant printing, contributions to CSF-ICE 
  Pauline Colinet        : FMM embedding                                 
  Dipayan Datta          : RHF DLPNO-CCSD density                        
  Achintya Kumar Dutta   : EOM-CC, STEOM-CC                              
  Nicolas Foglia         : Exact transition moments, OPA infrastructure, MCD improvements    
  Dmitry Ganyushin       : Spin-Orbit,Spin-Spin,Magnetic field MRCI      
  Miquel Garcia-Rates    : C-PCM and meta-GGA Hessian, CCSD/C-PCM, Gaussian charge scheme 
  Tiago L. C. Gouveia    : GS-ROHF, GS-ROCIS                             
  Yang Guo               : DLPNO-NEVPT2, F12-NEVPT2, CIM, IAO-localization        
  Andreas Hansen         : Spin unrestricted coupled pair/coupled cluster methods 
  Ingolf Harden          : AUTO-CI MPn and infrastructure                
  Benjamin Helmich-Paris : MC-RPA, TRAH-(SCF,CASSCF), AVAS, COSX integrals, SCF dyn. polar., MC-PDFT, srDFT 
  Lee Huntington         : MR-EOM, pCC                                   
  Robert Izsak           : Overlap fitted RIJCOSX, COSX-SCS-MP3, EOM     
  Riya Kayal             : Wick's Theorem for AUTO-CI, AUTO-CI UHF-CCSDT 
  Emily Kempfer          : AUTO-CI RHF CISDT and CCSDT, approximate NEVPT4
  Christian Kollmar      : KDIIS, OOCD, Brueckner-CCSD(T), CCSD density, CASPT2, CASPT2-K, improved NEVPT2 
  Axel Koslowski         : Symmetry handling                             
  Simone Kossmann        : meta-GGA functionals, TD-DFT gradient, OOMP2, (MP2 Hessian; deprecated post 5.0) 
  Lucas Lang             : DCDCAS, Hyperfine gauge corrections, ICE-SOC+SSC
  Marvin Lechner         : AUTO-CI (C++ implementation), FIC-MRCC        
  Spencer Leger          : CASSCF response                               
  Dagmar Lenk            : GEPOL surface, SMD, ORCA-2-JSON               
  Dimitrios Liakos       : Extrapolation schemes; Compound Job, Property file
  Dimitrios Manganas     : Further ROCIS development; embedding schemes. LFT, Crystal Embedding 
  Dimitrios Pantazis     : SARC Basis sets                               
  Anastasios Papadopoulos: AUTO-CI, single reference methods and gradients 
  Taras Petrenko         : pre 6.0 DFT Hessian and TD-DFT gradient,  ECA, NRVS 
  Petra Pikulova         : Analytic Raman intensities                    
  Peter Pinski           : DLPNO-MP2, DLPNO-MP2 Gradient                 
  Shashank Vittal Rao    : ES-AILFT, MagRelax                            
  Christoph Reimann      : Effective Core Potentials                     
  Marius Retegan         : Local ZFS, SOC                                
  Christoph Riplinger    : Optimizer, TS searches, QM/MM, DLPNO-CCSD(T), (RO)-DLPNO pert. Triples 
  Michael Roemelt        : Original ROCIS implementation, recursive CI coupling coefficients
  Masaaki Saitow         : Open-shell DLPNO-CCSD energy and density      
  Barbara Sandhoefer     : DKH picture change effects                    
  Yorick L. A. Schmerwitz: GMF and freeze-and-release deltaSCF, NEB S-IDPP initial path                    
  Kantharuban Sivalingam : CASSCF convergence/infrastructure, NEVPT2, NEVPT3, NEVPT4(SD), FIC-MRCI and CEPA variants
  Bernardo de Souza      : ESD, SOC TD-DFT                               
  Georgi L. Stoychev     : AutoAux, RI-MP2 NMR, DLPNO-MP2 response, X2C  
  Van Anh Tran           : RI-MP2 g-tensors                              
  Willem Van den Heuvel  : Paramagnetic NMR                              
  Zikuan Wang            : NOTCH, Electric field optimization            
  Frank Wennmohs         : Technical directorship and infrastructure     
  Hang Xu                : AUTO-CI-Response properties                   
                                                                         
[FACCTs GmbH]                                                            
  Markus Bursch, Nicolas Foglia, Miquel Garcia-Rates, Ingolf Harden, Hagen Neugebauer, Anastasios Papadopoulos, 
  Christoph Riplinger, Bernardo de Souza, Georgi L. Stoychev                                                    
                                                                 
  APM, various basis sets, CI-OPT, improved COSX, DLPNO-Multilevel,           
  DOCKER, DRACO, updates on ESD, Fragmentator, GOAT, IRC, LR-CPCM, L-BFGS, MBIS, meta-GGA TD-DFT gradient, ML-optimized integration grids, 
  MM, NACMEs, nearIR, NEB, NEB-TS, NL-DFT gradient (VV10), 2- and 3-layer-ONIOM, interface openCOSMO-RS, QMMM,   
  Crystal-QMMM, RESP, rigid body optimization, SF, symmetry and pop. for TD-DFT, various functionals, SOLVATOR                                   
                                                                         
[Other institutions]                                                     
  V. Asgeirsson          : NEB                                           
  Christoph Bannwarth    : sTDA-DFT, sTD-DFT, PBEh-3c, B97-3c, D3        
  Giovanni Bistoni       : ETS/NOCV, ADLD/ADEX, COVALED                  
  Martin Brehm           : Molecular dynamics                            
  Ronald Cardenas        : ETS/NOCV                                      
  Martina Colucci        : COVALED                                       
  Sebastian Ehlert       : rSCAN, r2SCAN, r2SCAN-3c, D4, dhf basis sets  
  Marvin Friede          : D4 for Fr, Ra, Ac-Lr                          
  Lars Goerigk           : TD-DFT with DH, B97 family of functionals     
  Stefan Grimme          : VdW corrections, initial TS optimization, DFT functionals, gCP, sTDA/sTD-DF 
  Waldemar Hujo          : DFT-NL                                        
  H. Jonsson             : NEB                                           
  Holger Kruse           : gCP                                           
  Marcel Mueller         : wB97X-3c, vDZP basis set                      
  Hagen Neugebauer       : wr2SCAN, Native XTB                           
  Gianluca Regni         : ADLD/ADEX                                     
  Tobias Risthaus        : pre 6.0 range-separated hybrid DFT and stability analysis
  Lukas Wittmann         : regularized MP2, r2SCAN double-hybrids, wr2SCAN        
                                                                         
We gratefully acknowledge several colleagues who have allowed us to      
interface, adapt or use parts of their codes:                            
  Ed Valeev, F. Pavosevic, A. Kumar             : LibInt (2-el integral package), F12 methods 
  Garnet Chan, S. Sharma, J. Yang, R. Olivares  : DMRG                   
  Ulf Ekstrom                                   : XCFun DFT Library      
  Mihaly Kallay                                 : mrcc  (arbitrary order and MRCC methods)
  Frank Weinhold                                : gennbo (NPA and NBO analysis)           
  Simon Mueller                                 : openCOSMO-RS                            
  Christopher J. Cramer and Donald G. Truhlar   : smd solvation model                     
  S Lehtola, MJT Oliveira, MAL Marques          : LibXC Library                           
  Liviu Ungur et al                             : ANISO software                          


 Your calculation uses the libint2 library for the computation of 2-el integrals
 For citations please refer to: http://libint.valeyev.net

 Your ORCA version has been built with support for libXC version: 7.0.0
 For citations please refer to: https://libxc.gitlab.io

 This ORCA versions uses:
   CBLAS   interface :  Fast vector & matrix operations
   LAPACKE interface :  Fast linear algebra routines
   SCALAPACK package :  Parallel linear algebra routines
   Shared memory     :  Shared parallel matrices
   BLAS/LAPACK       :  OpenBLAS 0.3.29  USE64BITINT DYNAMIC_ARCH NO_AFFINITY Zen SINGLE_THREADED
        Core in use  :  Zen
   Copyright (c) 2011-2014, The OpenBLAS Project


  ***********************************
  * Starting time: Fri Apr 17 12:14:33 2026
  * Host name:     vmi3233575
  * Process ID:    336581
  * Working dir.:  /root/orca_b12_vps_pack/jobs/01_xtb/mult_3
  ***********************************

NOTE: MaxCore=500 MB was set to SCF,MP2,MDCI,CIPSI,MRCI,RASCI and CIS
      => If you want to overwrite this, your respective input block should be placed after the MaxCore statement


***************************************
The coordinates will be read from file: ../../../starts/random_d1.50_007.xyz
***************************************


Your calculation utilizes the semiempirical GFN2-xTB method
Please cite in your paper:
Bannwarth, C.; Ehlert S.; Grimme, S. J. Chem. Theory Comput. 2019, 15, 1652.
   

================================================================================

================================================================================
                                        WARNINGS
                       Please study these warnings very carefully!
================================================================================


WARNING: Geometry Optimization
  ===> : Switching off AutoStart
         For restart on a previous wavefunction, please use MOREAD

WARNING: Found dipole moment calculation with XTB calculation
  ===> : Switching off dipole moment calculation

Environment variable XTBEXE for xtb has been set!

================================================================================
                                       INPUT FILE
================================================================================
NAME = random_d1.50_007_m3.inp
|  1> ! GFN2-xTB TightSCF TightOpt
|  2> 
|  3> %pal
|  4>   nprocs 1
|  5> end
|  6> 
|  7> %maxcore 500
|  8> 
|  9> * xyzfile 0 3 ../../../starts/random_d1.50_007.xyz
| 10> 
| 11>                          ****END OF INPUT****
================================================================================

                       *****************************
                       * Geometry Optimization Run *
                       *****************************

Geometry optimization settings:
Update method            Update   .... BFGS
Choice of coordinates    CoordSys .... (2022) Redundant Internals
Initial Hessian          InHess   .... Almloef's Model
Max. no of cycles        MaxIter  .... 50

Convergence Tolerances:
Energy Change            TolE     ....  1.0000e-06 Eh
Max. Gradient            TolMAXG  ....  1.0000e-04 Eh/bohr
RMS Gradient             TolRMSG  ....  3.0000e-05 Eh/bohr
Max. Displacement        TolMAXD  ....  1.0000e-03 bohr
RMS Displacement         TolRMSD  ....  6.0000e-04 bohr
Strict Convergence                .... False

------------------------------------------------------------------------------
                        ORCA OPTIMIZATION COORDINATE SETUP
------------------------------------------------------------------------------

The optimization will be done in redundant internal coordinates (2022)
Making redundant internal coordinates   ...  (2022 redundants) done
Evaluating the initial hessian          ...  (Almloef) done
Evaluating the coordinates              ...  done
Calculating the B-matrix                .... done
Calculating the G-matrix                .... done
The number of degrees of freedom        ....   42

    -----------------------------------------------------------------
                    Redundant Internal Coordinates


    -----------------------------------------------------------------
         Definition                    Initial Value    Approx d2E/dq
    -----------------------------------------------------------------
      1. B(B   4,B   1)                  1.8725         0.142400   
      2. B(B   4,B   0)                  1.6884         0.280046   
      3. B(B   5,B   2)                  1.8215         0.171792   
      4. B(B   6,B   0)                  1.6451         0.328332   
      5. B(B   7,B   2)                  1.5602         0.448616   
      6. B(B   8,B   2)                  1.6002         0.387261   
      7. B(B   9,B   6)                  1.6813         0.287485   
      8. B(B   9,B   7)                  1.7450         0.227489   
      9. B(B  10,B   3)                  1.3355         1.023995   
     10. B(B  10,B   1)                  1.8267         0.168511   
     11. B(B  11,B   9)                  1.9028         0.127440   
     12. B(B  11,B   7)                  1.3142         1.107225   
     13. A(B   4,B   0,B   6)          122.8418         0.349476   
     14. A(B   4,B   1,B  10)          127.2229         0.281186   
     15. A(B   5,B   2,B   8)          139.4106         0.331080   
     16. A(B   7,B   2,B   8)           89.5382         0.389824   
     17. A(B   5,B   2,B   7)          125.3357         0.339274   
     18. A(B   0,B   4,B   1)          113.6126         0.304601   
     19. A(B   0,B   6,B   9)          108.2437         0.351026   
     20. A(B   9,B   7,B  11)           75.4558         0.416209   
     21. A(B   2,B   7,B  11)          108.5345         0.470571   
     22. A(B   2,B   7,B   9)          114.8512         0.355697   
     23. A(B   7,B   9,B  11)           41.9570         0.289590   
     24. A(B   6,B   9,B  11)          163.7659         0.300504   
     25. A(B   6,B   9,B   7)          122.1471         0.330144   
     26. A(B   1,B  10,B   3)           93.0129         0.389362   
     27. A(B   7,B  11,B   9)           62.5872         0.375989   
     28. D(B   0,B   4,B   1,B  10)    -55.4582         0.010000   
     29. D(B   1,B   4,B   0,B   6)     80.4578         0.010000   
     30. D(B   9,B   6,B   0,B   4)    -25.3838         0.010000   
     31. D(B  11,B   7,B   2,B   5)     10.3806         0.010000   
     32. D(B   9,B   7,B   2,B   8)     85.9308         0.010000   
     33. D(B  11,B   7,B   2,B   8)    168.0788         0.010000   
     34. D(B   9,B   7,B   2,B   5)    -71.7673         0.010000   
     35. D(B  11,B   9,B   7,B   2)    103.9900         0.010000   
     36. D(B   6,B   9,B   7,B  11)    175.6461         0.010000   
     37. D(B   6,B   9,B   7,B   2)    -80.3639         0.010000   
     38. D(B  11,B   9,B   6,B   0)    108.9234         0.010000   
     39. D(B   7,B   9,B   6,B   0)     98.4632         0.010000   
     40. D(B   3,B  10,B   1,B   4)    -57.0863         0.010000   
     41. D(B   7,B  11,B   9,B   6)    -13.2923         0.010000   
     42. D(B   9,B  11,B   7,B   2)   -111.7740         0.055918   
    -----------------------------------------------------------------

Number of atoms                         .... 12
Number of degrees of freedom            .... 42


         *************************************************************
         *                GEOMETRY OPTIMIZATION CYCLE   1            *
         *************************************************************
---------------------------------
CARTESIAN COORDINATES (ANGSTROEM)
---------------------------------
  B     1.207760   -1.547886   -1.697243
  B     0.255911    1.252371   -2.074890
  B    -1.565121   -0.332178    0.999891
  B    -0.000505    1.882393    0.141922
  B    -0.122951   -0.581437   -2.079371
  B    -2.123339    1.265218    0.325767
  B     1.708709   -1.805693   -0.151580
  B    -0.230581   -0.568600    1.772706
  B    -1.614122   -1.889266    0.634197
  B     1.208516   -0.504131    0.787850
  B     0.970230    2.229801   -0.706952
  B     0.305492    0.599408    2.047702

----------------------------
CARTESIAN COORDINATES (A.U.)
----------------------------
  NO LB    ZA    FRAG    MASS        X           Y           Z
   0 B   5.0000    0    10.810    2.282335   -2.925081   -3.207324
   1 B   5.0000    0    10.810    0.483602    2.366639   -3.920973
   2 B   5.0000    0    10.810   -2.957650   -0.627725    1.889520
   3 B   5.0000    0    10.810   -0.000954    3.557207    0.268194
   4 B   5.0000    0    10.810   -0.232343   -1.098758   -3.929441
   5 B   5.0000    0    10.810   -4.012530    2.390916    0.615610
   6 B   5.0000    0    10.810    3.228993   -3.412265   -0.286445
   7 B   5.0000    0    10.810   -0.435735   -1.074498    3.349929
   8 B   5.0000    0    10.810   -3.050249   -3.570195    1.198458
   9 B   5.0000    0    10.810    2.283764   -0.952670    1.488821
  10 B   5.0000    0    10.810    1.833469    4.213712   -1.335945
  11 B   5.0000    0    10.810    0.577297    1.132718    3.869595

      -----------------------------------------------------------      
     |                   =====================                   |     
     |                           x T B                           |     
     |                   =====================                   |     
     |                         S. Grimme                         |     
     |          Mulliken Center for Theoretical Chemistry        |     
     |                    University of Bonn                     |     
      -----------------------------------------------------------      

   * xtb version 6.6.1 (unknown) compiled by 'builduser@buildhost' on 2023-08-07

   xtb is free software: you can redistribute it and/or modify it under
   the terms of the GNU Lesser General Public License as published by
   the Free Software Foundation, either version 3 of the License, or
   (at your option) any later version.
   
   xtb is distributed in the hope that it will be useful,
   but WITHOUT ANY WARRANTY; without even the implied warranty of
   MERCHANTABILITY or FITNESS FOR A PARTICULAR PURPOSE.  See the
   GNU Lesser General Public License for more details.
   
   Cite this work as:
   * C. Bannwarth, E. Caldeweyher, S. Ehlert, A. Hansen, P. Pracht,
     J. Seibert, S. Spicher, S. Grimme, WIREs Comput. Mol. Sci., 2020, 11,
     e01493. DOI: 10.1002/wcms.1493
   
   for GFN2-xTB:
   * C. Bannwarth, S. Ehlert and S. Grimme., J. Chem. Theory Comput., 2019,
     15, 1652-1671. DOI: 10.1021/acs.jctc.8b01176
   for GFN1-xTB:
   * S. Grimme, C. Bannwarth, P. Shushkov, J. Chem. Theory Comput., 2017,
     13, 1989-2009. DOI: 10.1021/acs.jctc.7b00118
   for GFN0-xTB:
   * P. Pracht, E. Caldeweyher, S. Ehlert, S. Grimme, ChemRxiv, 2019, preprint.
     DOI: 10.26434/chemrxiv.8326202.v1
   for GFN-FF:
   * S. Spicher and S. Grimme, Angew. Chem. Int. Ed., 2020, 59, 15665-15673.
     DOI: 10.1002/anie.202004239
   
   for ALPB and GBSA implicit solvation:
   * S. Ehlert, M. Stahn, S. Spicher, S. Grimme, J. Chem. Theory Comput.,
     2021, 17, 4250-4261. DOI: 10.1021/acs.jctc.1c00471
   
   for DFT-D4:
   * E. Caldeweyher, C. Bannwarth and S. Grimme, J. Chem. Phys., 2017,
     147, 034112. DOI: 10.1063/1.4993215
   * E. Caldeweyher, S. Ehlert, A. Hansen, H. Neugebauer, S. Spicher,
     C. Bannwarth and S. Grimme, J. Chem. Phys., 2019, 150, 154122.
     DOI: 10.1063/1.5090222
   * E. Caldeweyher, J.-M. Mewes, S. Ehlert and S. Grimme, Phys. Chem. Chem. Phys.
     2020, 22, 8499-8512. DOI: 10.1039/D0CP00502A
   
   for sTDA-xTB:
   * S. Grimme and C. Bannwarth, J. Chem. Phys., 2016, 145, 054103.
     DOI: 10.1063/1.4959605
   
   in the mass-spec context:
   * V. Asgeirsson, C. Bauer and S. Grimme, Chem. Sci., 2017, 8, 4879.
     DOI: 10.1039/c7sc00601b
   * J. Koopman and S. Grimme, ACS Omega 2019, 4, 12, 15120-15133.
     DOI: 10.1021/acsomega.9b02011
   
   for metadynamics refer to:
   * S. Grimme, J. Chem. Theory Comput., 2019, 155, 2847-2862
     DOI: 10.1021/acs.jctc.9b00143
   
   for SPH calculations refer to:
   * S. Spicher and S. Grimme, J. Chem. Theory Comput., 2021, 17, 1701-1714
     DOI: 10.1021/acs.jctc.0c01306
   
   with help from (in alphabetical order)
   P. Atkinson, C. Bannwarth, F. Bohle, G. Brandenburg, E. Caldeweyher
   M. Checinski, S. Dohm, S. Ehlert, S. Ehrlich, I. Gerasimov, C. Hölzer
   A. Katbashev, J. Koopman, C. Lavigne, S. Lehtola, F. März, M. Müller,
   F. Musil, H. Neugebauer, J. Pisarek, C. Plett, P. Pracht, F. Pultar,
   J. Seibert, P. Shushkov, S. Spicher, M. Stahn, M. Steiner, T. Strunk,
   J. Stückrath, T. Rose, and J. Unsleber
   
 * started run on 2026/04/17 at 12:14:33.411     

           -------------------------------------------------
          |                Calculation Setup                |
           -------------------------------------------------

          program call               : /usr/bin/xtb random_d1.50_007_m3_XTB.xyz --grad -c 0 -u 2 -P 1 --namespace random_d1.50_007_m3 --input random_d1.50_007_m3_XTB.input.tmp --acc 0.200000
          calculation namespace      : random_d1.50_007_m3
          coordinate file            : random_d1.50_007_m3_XTB.xyz
          omp threads                :                     1

   ID    Z sym.   atoms
    1    5 B      1-12

           -------------------------------------------------
          |                 G F N 2 - x T B                 |
           -------------------------------------------------

        Reference                      10.1021/acs.jctc.8b01176
      * Hamiltonian:
        H0-scaling (s, p, d)           1.850000    2.230000    2.230000
        zeta-weighting                 0.500000
      * Dispersion:
        s8                             2.700000
        a1                             0.520000
        a2                             5.000000
        s9                             5.000000
      * Repulsion:
        kExp                           1.500000    1.000000
        rExp                           1.000000
      * Coulomb:
        alpha                          2.000000
        third order                    shell-resolved
        anisotropic                    true
        a3                             3.000000
        a5                             4.000000
        cn-shift                       1.200000
        cn-exp                         4.000000
        max-rad                        5.000000


          ...................................................
          :                      SETUP                      :
          :.................................................:
          :  # basis functions                  48          :
          :  # atomic orbitals                  48          :
          :  # shells                           24          :
          :  # electrons                        36          :
          :  max. iterations                   250          :
          :  Hamiltonian                  GFN2-xTB          :
          :  restarted?                      false          :
          :  GBSA solvation                  false          :
          :  PC potential                    false          :
          :  electronic temp.          300.0000000     K    :
          :  accuracy                    0.2000000          :
          :  -> integral cutoff          0.3198970E+02      :
          :  -> integral neglect         0.2000000E-08      :
          :  -> SCF convergence          0.2000000E-06 Eh   :
          :  -> wf. convergence          0.2000000E-04 e    :
          :  Broyden damping             0.4000000          :
          ...................................................

 iter      E             dE          RMSdq      gap      omega  full diag
   1    -13.7101567 -0.137102E+02  0.213E+01    0.12       0.0  T
   2     -6.1185599  0.759160E+01  0.186E+01    0.05       1.0  T
   3     25.5378748  0.316564E+02  0.310E+01    1.24       1.0  T
   4     -7.8960279 -0.334339E+02  0.167E+01    0.36       1.0  T
   5    -11.0982310 -0.320220E+01  0.119E+01    0.07       1.0  T
   6    -10.7661065  0.332124E+00  0.119E+01    0.15       1.0  T
   7    -12.4794322 -0.171333E+01  0.819E+00    0.26       1.0  T
   8    -13.4421132 -0.962681E+00  0.635E+00    0.24       1.0  T
   9    -13.4116788  0.304344E-01  0.601E+00    0.13       1.0  T
  10    -13.5863617 -0.174683E+00  0.525E+00    0.14       1.0  T
  11    -13.6384413 -0.520796E-01  0.503E+00    0.12       1.0  T
  12    -13.6482920 -0.985070E-02  0.483E+00    0.15       1.0  T
  13    -13.6594382 -0.111462E-01  0.444E+00    0.22       1.0  T
  14    -13.6649687 -0.553055E-02  0.441E+00    0.22       1.0  T
  15    -13.6797453 -0.147765E-01  0.419E+00    0.21       1.0  T
  16    -13.7071578 -0.274125E-01  0.400E+00    0.21       1.0  T
  17    -13.7228729 -0.157151E-01  0.361E+00    0.19       1.0  T
  18    -13.9045249 -0.181652E+00  0.173E+00    0.18       1.0  T
  19    -13.9314090 -0.268841E-01  0.134E+00    0.17       1.0  T
  20    -13.9341936 -0.278462E-02  0.132E+00    0.16       1.0  T
  21    -13.9340597  0.133926E-03  0.133E+00    0.16       1.0  T
  22    -13.9384706 -0.441088E-02  0.834E-01    0.17       1.0  T
  23    -13.9414924 -0.302182E-02  0.686E-01    0.18       1.0  T
  24    -13.9422555 -0.763094E-03  0.577E-01    0.18       1.0  T
  25    -13.9440604 -0.180491E-02  0.306E-01    0.20       1.0  T
  26    -13.9440121  0.482709E-04  0.344E-01    0.19       1.0  T
  27    -13.9447868 -0.774627E-03  0.210E-01    0.20       1.0  T
  28    -13.9452078 -0.421079E-03  0.149E-01    0.20       1.0  T
  29    -13.9452635 -0.556818E-04  0.134E-01    0.20       1.0  T
  30    -13.9452038  0.596902E-04  0.124E-01    0.20       1.0  T
  31    -13.9452701 -0.662867E-04  0.102E-01    0.20       1.0  T
  32    -13.9453426 -0.724842E-04  0.768E-02    0.21       1.0  T
  33    -13.9453706 -0.279961E-04  0.602E-02    0.21       1.0  T
  34    -13.9454106 -0.399498E-04  0.267E-02    0.21       1.1  T
  35    -13.9454175 -0.690135E-05  0.133E-02    0.21       2.2  T
  36    -13.9454200 -0.254884E-05  0.545E-03    0.21       5.3  T
  37    -13.9454203 -0.261659E-06  0.392E-03    0.21       7.4  T
  38    -13.9454205 -0.224309E-06  0.386E-04    0.21      74.7  T
  39    -13.9454205 -0.481608E-09  0.325E-04    0.21      88.8  T
  40    -13.9454205 -0.907091E-09  0.168E-04    0.21     172.3  T
  41    -13.9454205 -0.277176E-09  0.847E-05    0.21     340.9  T

   *** convergence criteria satisfied after 41 iterations ***

         #    Occupation            Energy/Eh            Energy/eV
      -------------------------------------------------------------
         1        2.0000           -0.4196087             -11.4181
       ...           ...                  ...                  ...
        13        2.0000           -0.2718942              -7.3986
        14        2.0000           -0.2620413              -7.1305
        15        2.0000           -0.2520028              -6.8573
        16        1.9989           -0.2438235              -6.6348
        17        1.9704           -0.2406476              -6.5484
        18        1.0306           -0.2340497              -6.3688
        19        0.9825           -0.2284908              -6.2176 (HOMO)
        20        0.0177           -0.2208536              -6.0097 (LUMO)
        21        0.0000           -0.2141642              -5.8277
        22                         -0.2001454              -5.4462
        23                         -0.1968020              -5.3553
        24                         -0.1878506              -5.1117
       ...                                ...                  ...
        48                          2.0774549              56.5304
      -------------------------------------------------------------
                  HL-Gap            0.0076373 Eh            0.2078 eV
             Fermi-level           -0.2310019 Eh           -6.2859 eV

 transition dipole moment (au) for excitation:          18          19
     X       Y       Z   
   0.1173  -0.4663  -0.6752  total (au/Debye):    0.829   2.107
 dE (eV)             :    0.151
 oscillator strength :  0.36006E-02

 SCC (total)                   0 d,  0 h,  0 min,  0.076 sec
 SCC setup                      ...        0 min,  0.000 sec (  0.231%)
 Dispersion                     ...        0 min,  0.000 sec (  0.123%)
 classical contributions        ...        0 min,  0.000 sec (  0.044%)
 integral evaluation            ...        0 min,  0.003 sec (  3.728%)
 iterations                     ...        0 min,  0.045 sec ( 59.235%)
 molecular gradient             ...        0 min,  0.011 sec ( 14.038%)
 printout                       ...        0 min,  0.017 sec ( 22.565%)

         :::::::::::::::::::::::::::::::::::::::::::::::::::::
         ::                     SUMMARY                     ::
         :::::::::::::::::::::::::::::::::::::::::::::::::::::
         :: total energy             -13.702831884524 Eh    ::
         :: gradient norm              0.515826237173 Eh/a0 ::
         :: HOMO-LUMO gap              0.207820307716 eV    ::
         ::.................................................::
         :: SCC energy               -13.945420489903 Eh    ::
         :: -> isotropic ES            0.077749215536 Eh    ::
         :: -> anisotropic ES          0.002880369389 Eh    ::
         :: -> anisotropic XC         -0.034975301587 Eh    ::
         :: -> dispersion             -0.017618513210 Eh    ::
         :: repulsion energy           0.242544872033 Eh    ::
         :: add. restraining           0.000000000000 Eh    ::
         :: total charge               0.000000000014 e     ::
         :::::::::::::::::::::::::::::::::::::::::::::::::::::


Property printout bound to 'properties.out'

           -------------------------------------------------
          | TOTAL ENERGY              -13.702831884524 Eh   |
          | GRADIENT NORM               0.515826237173 Eh/α |
          | HOMO-LUMO GAP               0.207820307716 eV   |
           -------------------------------------------------

------------------------------------------------------------------------
 * finished run on 2026/04/17 at 12:14:33.507     
------------------------------------------------------------------------
 total:
 * wall-time:     0 d,  0 h,  0 min,  0.096 sec
 *  cpu-time:     0 d,  0 h,  0 min,  0.096 sec
 * ratio c/w:     0.999 speedup
 SCF:
 * wall-time:     0 d,  0 h,  0 min,  0.077 sec
 *  cpu-time:     0 d,  0 h,  0 min,  0.077 sec
 * ratio c/w:     1.000 speedup


-------------------------   --------------------
FINAL SINGLE POINT ENERGY       -13.702831884520
-------------------------   --------------------


-------------
DIPOLE MOMENT
-------------
                                X             Y             Z
Total Dipole Moment    :      0.30800       0.06900       0.21000
                        -----------------------------------------
Magnitude (a.u.)       :      0.37911
Magnitude (Debye)      :      0.96362


------------------
CARTESIAN GRADIENT
------------------

   1   B   :    0.048833816   -0.018929962   -0.052874181
   2   B   :   -0.014725735    0.036691600   -0.069251304
   3   B   :    0.060298199   -0.008666611    0.057111744
   4   B   :    0.173639353    0.056483492   -0.139301540
   5   B   :   -0.086573678   -0.038382018   -0.006676395
   6   B   :   -0.078116591    0.044152043   -0.028349945
   7   B   :    0.036862843   -0.074717156    0.032452572
   8   B   :    0.077897407    0.223611416    0.040715627
   9   B   :   -0.015638063   -0.047705565   -0.013830503
  10   B   :    0.010183630    0.057550309    0.000311427
  11   B   :   -0.092297439   -0.012279051    0.184714723
  12   B   :   -0.120363742   -0.217808499   -0.005022225

Difference to translation invariance:
           :   -0.0000000000   -0.0000000000    0.0000000000

Difference to rotation invariance:
           :    0.0000000382    0.0000000279   -0.0000000051

Norm of the Cartesian gradient     ...    0.5158262372
RMS gradient                       ...    0.0859710395
MAX gradient                       ...    0.2236114160
------------------------------------------------------------------------------
                         ORCA GEOMETRY RELAXATION STEP
------------------------------------------------------------------------------

Reading the OPT-File                    .... done
Getting information on internals        .... done
Copying old internal coords+grads       .... done
Making the new internal coordinates     .... (2022 redundants) done
Validating the new internal coordinates .... (2022 redundants) done
Calculating the B-matrix                .... done
Calculating the G,G- and P matrices     .... done
Transforming gradient to internals      .... done
Projecting the internal gradient        .... done
Number of atoms                         ....  12
Number of internal coordinates          ....  42
Current Energy                          ....   -13.702831885 Eh
Current gradient norm                   ....     0.515826237 Eh/bohr
Maximum allowed component of the step   ....  0.300
Current trust radius                    ....  0.300
Evaluating the initial hessian          ....  (Almloef) done
Projecting the Hessian                  .... done
Forming the augmented Hessian           .... done
Diagonalizing the augmented Hessian     .... done
Last element of RFO vector              ....  0.734633627
Lowest eigenvalues of augmented Hessian:
 -0.632782332  0.010000000  0.010000000  0.010000000  0.010000000
Length of the computed step             ....  0.923540662
Warning: the length of the step is outside the trust region - taking restricted step instead
The input lambda is                     ....     0.009000
   iter:   5  x=    0.002371  g=3835663.812488 f(x)=  9766.537056
   iter:  10  x=   -0.048555  g= 8661.615819 f(x)=   170.590704
   iter:  15  x=   -0.468117  g=   18.680651 f(x)=     3.089214
   iter:  20  x=   -2.121767  g=    0.113545 f(x)=     0.025930
   iter:  25  x=   -2.169617  g=    0.077319 f(x)=    -0.000000
The output lambda is                    ....    -2.169617 (25 iterations)
The final length of the internal step   ....  0.300000000
Converting the step to Cartesian space:
 Initial RMS(Int)=    0.0462910050
Transforming coordinates:
 Iter   0:  RMS(Cart)=    0.5597094269 RMS(Int)=    0.0546515604
 Iter   5:  RMS(Cart)=    0.0002401870 RMS(Int)=    0.0000724708
 Iter  10:  RMS(Cart)=    0.0000002785 RMS(Int)=    0.0000001348
done
Storing new coordinates                 .... done

                                .--------------------.
          ----------------------|Geometry convergence|-------------------------
          Item                value                   Tolerance       Converged
          ---------------------------------------------------------------------
          RMS gradient        0.1100973050            0.0000300000      NO
          MAX gradient        0.3659484044            0.0001000000      NO
          RMS step            0.0462910050            0.0006000000      NO
          MAX step            0.1678957690            0.0010000000      NO
          -------------------------------------------------------------------------
          ........................................................
          Max(Bonds)      0.0380      Max(Angles)    4.83
          Max(Dihed)        9.62      Max(Improp)    0.00
          ---------------------------------------------------------------------

The optimization has not yet converged - more geometry cycles are needed


    ---------------------------------------------------------------------------
                         Redundant Internal Coordinates
                            (Angstroem and degrees)

        Definition                    Value    dE/dq     Step     New-Value
    ----------------------------------------------------------------------------
     1. B(B   4,B   1)                1.8725  0.092644 -0.0212    1.8513   
     2. B(B   4,B   0)                1.6884  0.046970 -0.0101    1.6783   
     3. B(B   5,B   2)                1.8215  0.073153 -0.0165    1.8049   
     4. B(B   6,B   0)                1.6451  0.073249 -0.0155    1.6296   
     5. B(B   7,B   2)                1.5602  0.019370 -0.0039    1.5563   
     6. B(B   8,B   2)                1.6002  0.050060 -0.0104    1.5898   
     7. B(B   9,B   6)                1.6813  0.087602 -0.0189    1.6624   
     8. B(B   9,B   7)                1.7450  0.048889 -0.0104    1.7346   
     9. B(B  10,B   3)                1.3355 -0.229447  0.0380    1.3735   
    10. B(B  10,B   1)                1.8267  0.089469 -0.0202    1.8065   
    11. B(B  11,B   9)                1.9028  0.000167 -0.0019    1.9008   
    12. B(B  11,B   7)                1.3142 -0.187488  0.0319    1.3461   
    13. A(B   4,B   0,B   6)          122.84 -0.038872    0.88    123.73   
    14. A(B   4,B   1,B  10)          127.22  0.032017   -0.75    126.47   
    15. A(B   5,B   2,B   8)          139.41 -0.065125    1.45    140.86   
    16. A(B   7,B   2,B   8)           89.54 -0.016753    0.34     89.88   
    17. A(B   5,B   2,B   7)          125.34  0.137998   -3.18    122.15   
    18. A(B   0,B   4,B   1)          113.61 -0.208669    4.83    118.44   
    19. A(B   0,B   6,B   9)          108.24  0.039412   -0.90    107.35   
    20. A(B   9,B   7,B  11)           75.46  0.022738   -0.43     75.02   
    21. A(B   2,B   7,B  11)          108.53  0.044121   -1.11    107.43   
    22. A(B   2,B   7,B   9)          114.85  0.081930   -2.02    112.83   
    23. A(B   7,B   9,B  11)           41.96 -0.062608    1.20     43.16   
    24. A(B   6,B   9,B  11)          163.77 -0.125164    2.78    166.55   
    25. A(B   6,B   9,B   7)          122.15 -0.064138    1.63    123.77   
    26. A(B   1,B  10,B   3)           93.01  0.014826   -0.33     92.68   
    27. A(B   7,B  11,B   9)           62.59  0.039871   -0.77     61.82   
    28. D(B   0,B   4,B   1,B  10)    -55.46  0.162247   -4.26    -59.72   
    29. D(B   1,B   4,B   0,B   6)     80.46  0.254746   -6.70     73.76   
    30. D(B   9,B   6,B   0,B   4)    -25.38  0.365948   -9.62    -35.00   
    31. D(B  11,B   7,B   2,B   5)     10.38 -0.011087    0.40     10.78   
    32. D(B   9,B   7,B   2,B   8)     85.93 -0.010242    0.16     86.09   
    33. D(B  11,B   7,B   2,B   8)    168.08  0.056665   -1.36    166.72   
    34. D(B   9,B   7,B   2,B   5)    -71.77 -0.077994    1.92    -69.85   
    35. D(B  11,B   9,B   7,B   2)    103.99  0.046014   -1.10    102.89   
    36. D(B   6,B   9,B   7,B  11)    175.65 -0.007554    0.07    175.72   
    37. D(B   6,B   9,B   7,B   2)    -80.36  0.038460   -1.03    -81.39   
    38. D(B  11,B   9,B   6,B   0)    108.92  0.061252   -1.66    107.26   
    39. D(B   7,B   9,B   6,B   0)     98.46  0.135152   -3.50     94.96   
    40. D(B   3,B  10,B   1,B   4)    -57.09  0.020413   -0.54    -57.62   
    41. D(B   7,B  11,B   9,B   6)    -13.29  0.068592   -1.79    -15.08   
    42. D(B   9,B  11,B   7,B   2)   -111.77 -0.086665    2.11   -109.67   
    ----------------------------------------------------------------------------

Geometry step timings:
Preparation and reading OPT file:      0.000 s ( 1.576 %)
Internal coordinates            :      0.000 s ( 1.345 %)
B/P matrices and projection     :      0.001 s (20.523 %)
Hessian update/contruction      :      0.000 s (10.876 %)
Making the step                 :      0.001 s (36.011 %)
Converting the step to Cartesian:      0.000 s ( 3.728 %)
Storing new data                :      0.000 s ( 2.037 %)
Checking convergence            :      0.000 s ( 1.576 %)
Final printing                  :      0.001 s (22.252 %)
Total time                      :      0.003 s

Time for energy+gradient        :      0.112 s
Time for complete geometry iter :      0.116 s

         *************************************************************
         *                GEOMETRY OPTIMIZATION CYCLE   2            *
         *************************************************************
---------------------------------
CARTESIAN COORDINATES (ANGSTROEM)
---------------------------------
  B     1.311048   -1.622344   -1.664901
  B     0.021295    1.118332   -1.835901
  B    -1.316362    0.016219    0.771268
  B    -0.804327    1.380119    0.316269
  B    -0.037512   -0.715387   -2.083817
  B    -1.408351    1.682285    0.083132
  B     1.743757   -1.942817   -0.126808
  B    -0.130330   -0.444355    1.667446
  B    -1.599825   -1.497498    0.376407
  B     1.354511   -0.608913    0.785819
  B     0.281316    1.982624   -0.271070
  B     0.584780    0.651735    1.982157

----------------------------
CARTESIAN COORDINATES (A.U.)
----------------------------
  NO LB    ZA    FRAG    MASS        X           Y           Z
   0 B   5.0000    0    10.810    2.477522   -3.065786   -3.146208
   1 B   5.0000    0    10.810    0.040241    2.113342   -3.469349
   2 B   5.0000    0    10.810   -2.487564    0.030650    1.457484
   3 B   5.0000    0    10.810   -1.519958    2.608048    0.597663
   4 B   5.0000    0    10.810   -0.070887   -1.351886   -3.937844
   5 B   5.0000    0    10.810   -2.661398    3.179058    0.157098
   6 B   5.0000    0    10.810    3.295224   -3.671393   -0.239632
   7 B   5.0000    0    10.810   -0.246288   -0.839709    3.151016
   8 B   5.0000    0    10.810   -3.023231   -2.829862    0.711305
   9 B   5.0000    0    10.810    2.559655   -1.150678    1.484982
  10 B   5.0000    0    10.810    0.531610    3.746616   -0.512248
  11 B   5.0000    0    10.810    1.105074    1.231600    3.745733

      -----------------------------------------------------------      
     |                   =====================                   |     
     |                           x T B                           |     
     |                   =====================                   |     
     |                         S. Grimme                         |     
     |          Mulliken Center for Theoretical Chemistry        |     
     |                    University of Bonn                     |     
      -----------------------------------------------------------      

   * xtb version 6.6.1 (unknown) compiled by 'builduser@buildhost' on 2023-08-07

   xtb is free software: you can redistribute it and/or modify it under
   the terms of the GNU Lesser General Public License as published by
   the Free Software Foundation, either version 3 of the License, or
   (at your option) any later version.
   
   xtb is distributed in the hope that it will be useful,
   but WITHOUT ANY WARRANTY; without even the implied warranty of
   MERCHANTABILITY or FITNESS FOR A PARTICULAR PURPOSE.  See the
   GNU Lesser General Public License for more details.
   
   Cite this work as:
   * C. Bannwarth, E. Caldeweyher, S. Ehlert, A. Hansen, P. Pracht,
     J. Seibert, S. Spicher, S. Grimme, WIREs Comput. Mol. Sci., 2020, 11,
     e01493. DOI: 10.1002/wcms.1493
   
   for GFN2-xTB:
   * C. Bannwarth, S. Ehlert and S. Grimme., J. Chem. Theory Comput., 2019,
     15, 1652-1671. DOI: 10.1021/acs.jctc.8b01176
   for GFN1-xTB:
   * S. Grimme, C. Bannwarth, P. Shushkov, J. Chem. Theory Comput., 2017,
     13, 1989-2009. DOI: 10.1021/acs.jctc.7b00118
   for GFN0-xTB:
   * P. Pracht, E. Caldeweyher, S. Ehlert, S. Grimme, ChemRxiv, 2019, preprint.
     DOI: 10.26434/chemrxiv.8326202.v1
   for GFN-FF:
   * S. Spicher and S. Grimme, Angew. Chem. Int. Ed., 2020, 59, 15665-15673.
     DOI: 10.1002/anie.202004239
   
   for ALPB and GBSA implicit solvation:
   * S. Ehlert, M. Stahn, S. Spicher, S. Grimme, J. Chem. Theory Comput.,
     2021, 17, 4250-4261. DOI: 10.1021/acs.jctc.1c00471
   
   for DFT-D4:
   * E. Caldeweyher, C. Bannwarth and S. Grimme, J. Chem. Phys., 2017,
     147, 034112. DOI: 10.1063/1.4993215
   * E. Caldeweyher, S. Ehlert, A. Hansen, H. Neugebauer, S. Spicher,
     C. Bannwarth and S. Grimme, J. Chem. Phys., 2019, 150, 154122.
     DOI: 10.1063/1.5090222
   * E. Caldeweyher, J.-M. Mewes, S. Ehlert and S. Grimme, Phys. Chem. Chem. Phys.
     2020, 22, 8499-8512. DOI: 10.1039/D0CP00502A
   
   for sTDA-xTB:
   * S. Grimme and C. Bannwarth, J. Chem. Phys., 2016, 145, 054103.
     DOI: 10.1063/1.4959605
   
   in the mass-spec context:
   * V. Asgeirsson, C. Bauer and S. Grimme, Chem. Sci., 2017, 8, 4879.
     DOI: 10.1039/c7sc00601b
   * J. Koopman and S. Grimme, ACS Omega 2019, 4, 12, 15120-15133.
     DOI: 10.1021/acsomega.9b02011
   
   for metadynamics refer to:
   * S. Grimme, J. Chem. Theory Comput., 2019, 155, 2847-2862
     DOI: 10.1021/acs.jctc.9b00143
   
   for SPH calculations refer to:
   * S. Spicher and S. Grimme, J. Chem. Theory Comput., 2021, 17, 1701-1714
     DOI: 10.1021/acs.jctc.0c01306
   
   with help from (in alphabetical order)
   P. Atkinson, C. Bannwarth, F. Bohle, G. Brandenburg, E. Caldeweyher
   M. Checinski, S. Dohm, S. Ehlert, S. Ehrlich, I. Gerasimov, C. Hölzer
   A. Katbashev, J. Koopman, C. Lavigne, S. Lehtola, F. März, M. Müller,
   F. Musil, H. Neugebauer, J. Pisarek, C. Plett, P. Pracht, F. Pultar,
   J. Seibert, P. Shushkov, S. Spicher, M. Stahn, M. Steiner, T. Strunk,
   J. Stückrath, T. Rose, and J. Unsleber
   
 * started run on 2026/04/17 at 12:14:33.527     

           -------------------------------------------------
          |                Calculation Setup                |
           -------------------------------------------------

          program call               : /usr/bin/xtb random_d1.50_007_m3_XTB.xyz --grad -c 0 -u 2 -P 1 --namespace random_d1.50_007_m3 --input random_d1.50_007_m3_XTB.input.tmp --acc 0.200000
          calculation namespace      : random_d1.50_007_m3
          coordinate file            : random_d1.50_007_m3_XTB.xyz
          omp threads                :                     1

   ID    Z sym.   atoms
    1    5 B      1-12

           -------------------------------------------------
          |                 G F N 2 - x T B                 |
           -------------------------------------------------

        Reference                      10.1021/acs.jctc.8b01176
      * Hamiltonian:
        H0-scaling (s, p, d)           1.850000    2.230000    2.230000
        zeta-weighting                 0.500000
      * Dispersion:
        s8                             2.700000
        a1                             0.520000
        a2                             5.000000
        s9                             5.000000
      * Repulsion:
        kExp                           1.500000    1.000000
        rExp                           1.000000
      * Coulomb:
        alpha                          2.000000
        third order                    shell-resolved
        anisotropic                    true
        a3                             3.000000
        a5                             4.000000
        cn-shift                       1.200000
        cn-exp                         4.000000
        max-rad                        5.000000

q/qsh data taken from xtbrestart
CAMM data taken from xtbrestart

          ...................................................
          :                      SETUP                      :
          :.................................................:
          :  # basis functions                  48          :
          :  # atomic orbitals                  48          :
          :  # shells                           24          :
          :  # electrons                        36          :
          :  max. iterations                   250          :
          :  Hamiltonian                  GFN2-xTB          :
          :  restarted?                       true          :
          :  GBSA solvation                  false          :
          :  PC potential                    false          :
          :  electronic temp.          300.0000000     K    :
          :  accuracy                    0.2000000          :
          :  -> integral cutoff          0.3198970E+02      :
          :  -> integral neglect         0.2000000E-08      :
          :  -> SCF convergence          0.2000000E-06 Eh   :
          :  -> wf. convergence          0.2000000E-04 e    :
          :  Broyden damping             0.4000000          :
          ...................................................

 iter      E             dE          RMSdq      gap      omega  full diag
   1    -13.5820789 -0.135821E+02  0.841E+00    0.24       0.0  T
   2     -7.2481000  0.633398E+01  0.168E+01    0.43       1.0  T
   3    -12.8917113 -0.564361E+01  0.999E+00    0.21       1.0  T
   4    -13.4567244 -0.565013E+00  0.702E+00    0.20       1.0  T
   5    -10.8539340  0.260279E+01  0.105E+01    0.31       1.0  T
   6    -13.2846337 -0.243070E+01  0.564E+00    0.44       1.0  T
   7    -13.3603334 -0.756997E-01  0.619E+00    0.14       1.0  T
   8    -13.9783632 -0.618030E+00  0.365E+00    0.09       1.0  T
   9    -13.8729975  0.105366E+00  0.409E+00    0.02       1.0  T
  10    -13.9316072 -0.586097E-01  0.390E+00    0.07       1.0  T
  11    -13.9310131  0.594102E-03  0.390E+00    0.07       1.0  T
  12    -14.0720773 -0.141064E+00  0.255E+00    0.13       1.0  T
  13    -14.1456072 -0.735299E-01  0.126E+00    0.22       1.0  T
  14    -14.1557658 -0.101585E-01  0.103E+00    0.26       1.0  T
  15    -14.1583802 -0.261448E-02  0.952E-01    0.25       1.0  T
  16    -14.1606768 -0.229659E-02  0.837E-01    0.24       1.0  T
  17    -14.1638700 -0.319316E-02  0.533E-01    0.23       1.0  T
  18    -14.1651893 -0.131936E-02  0.386E-01    0.23       1.0  T
  19    -14.1661788 -0.989450E-03  0.329E-01    0.23       1.0  T
  20    -14.1657022  0.476578E-03  0.353E-01    0.23       1.0  T
  21    -14.1666981 -0.995830E-03  0.175E-01    0.24       1.0  T
  22    -14.1665603  0.137749E-03  0.197E-01    0.24       1.0  T
  23    -14.1667699 -0.209574E-03  0.153E-01    0.24       1.0  T
  24    -14.1669591 -0.189192E-03  0.939E-02    0.24       1.0  T
  25    -14.1670355 -0.764707E-04  0.613E-02    0.24       1.0  T
  26    -14.1670769 -0.414043E-04  0.336E-02    0.24       1.0  T
  27    -14.1670768  0.159747E-06  0.334E-02    0.24       1.0  T
  28    -14.1670896 -0.127817E-04  0.178E-02    0.23       1.6  T
  29    -14.1670893  0.230964E-06  0.106E-02    0.23       2.7  T
  30    -14.1670904 -0.107026E-05  0.138E-03    0.23      20.9  T
  31    -14.1670904 -0.843663E-08  0.826E-04    0.23      35.0  T
  32    -14.1670904 -0.138619E-08  0.616E-04    0.23      46.9  T
  33    -14.1670904 -0.515721E-08  0.170E-04    0.23     169.8  T
  34    -14.1670904 -0.219483E-09  0.396E-05    0.23     728.6  T

   *** convergence criteria satisfied after 34 iterations ***

         #    Occupation            Energy/Eh            Energy/eV
      -------------------------------------------------------------
         1        2.0000           -0.4343141             -11.8183
       ...           ...                  ...                  ...
        13        2.0000           -0.2719654              -7.4006
        14        2.0000           -0.2510550              -6.8316
        15        2.0000           -0.2401660              -6.5353
        16        2.0000           -0.2328497              -6.3362
        17        1.9436           -0.2153862              -5.8610
        18        1.0494           -0.2099227              -5.7123
        19        0.9954           -0.2078293              -5.6553 (HOMO)
        20        0.0108           -0.1992067              -5.4207 (LUMO)
        21        0.0008           -0.1966917              -5.3523
        22        0.0000           -0.1935303              -5.2662
        23                         -0.1691510              -4.6028
        24                         -0.1561800              -4.2499
       ...                                ...                  ...
        48                         34.4927402             938.5952
      -------------------------------------------------------------
                  HL-Gap            0.0086226 Eh            0.2346 eV
             Fermi-level           -0.2081054 Eh           -5.6628 eV

 transition dipole moment (au) for excitation:          18          19
     X       Y       Z   
  -0.3261  -1.2561  -0.3567  total (au/Debye):    1.346   3.421
 dE (eV)             :    0.057
 oscillator strength :  0.35751E-02

 SCC (total)                   0 d,  0 h,  0 min,  0.050 sec
 SCC setup                      ...        0 min,  0.000 sec (  0.405%)
 Dispersion                     ...        0 min,  0.000 sec (  0.335%)
 classical contributions        ...        0 min,  0.000 sec (  0.076%)
 integral evaluation            ...        0 min,  0.003 sec (  5.477%)
 iterations                     ...        0 min,  0.035 sec ( 71.257%)
 molecular gradient             ...        0 min,  0.007 sec ( 13.234%)
 printout                       ...        0 min,  0.005 sec (  9.151%)

         :::::::::::::::::::::::::::::::::::::::::::::::::::::
         ::                     SUMMARY                     ::
         :::::::::::::::::::::::::::::::::::::::::::::::::::::
         :: total energy              -9.493367661553 Eh    ::
         :: gradient norm             19.394009148104 Eh/a0 ::
         :: HOMO-LUMO gap              0.234634135261 eV    ::
         ::.................................................::
         :: SCC energy               -14.167090419198 Eh    ::
         :: -> isotropic ES            0.077790127241 Eh    ::
         :: -> anisotropic ES          0.004012458965 Eh    ::
         :: -> anisotropic XC         -0.032491433285 Eh    ::
         :: -> dispersion             -0.014813038804 Eh    ::
         :: repulsion energy           4.673702938544 Eh    ::
         :: add. restraining           0.000000000000 Eh    ::
         :: total charge              -0.000000000004 e     ::
         :::::::::::::::::::::::::::::::::::::::::::::::::::::


Property printout bound to 'properties.out'

           -------------------------------------------------
          | TOTAL ENERGY               -9.493367661553 Eh   |
          | GRADIENT NORM              19.394009148104 Eh/α |
          | HOMO-LUMO GAP               0.234634135261 eV   |
           -------------------------------------------------

------------------------------------------------------------------------
 * finished run on 2026/04/17 at 12:14:33.591     
------------------------------------------------------------------------
 total:
 * wall-time:     0 d,  0 h,  0 min,  0.064 sec
 *  cpu-time:     0 d,  0 h,  0 min,  0.064 sec
 * ratio c/w:     0.999 speedup
 SCF:
 * wall-time:     0 d,  0 h,  0 min,  0.050 sec
 *  cpu-time:     0 d,  0 h,  0 min,  0.050 sec
 * ratio c/w:     1.000 speedup


-------------------------   --------------------
FINAL SINGLE POINT ENERGY        -9.493367661550
-------------------------   --------------------


-------------
DIPOLE MOMENT
-------------
                                X             Y             Z
Total Dipole Moment    :     -0.34700       0.90500       0.76000
                        -----------------------------------------
Magnitude (a.u.)       :      1.23168
Magnitude (Debye)      :      3.13068


------------------
CARTESIAN GRADIENT
------------------

   1   B   :    0.055507642   -0.014817673   -0.042088288
   2   B   :   -0.020157555    0.041100183   -0.050053224
   3   B   :    0.063597717    0.127710494    0.007603290
   4   B   :  -11.475944794    5.818754489   -4.557898051
   5   B   :   -0.077526929   -0.044978628   -0.023646175
   6   B   :   11.640513347   -5.826866794    4.491202093
   7   B   :    0.022086686   -0.074733710    0.036510811
   8   B   :    0.082646973    0.170003181    0.021505191
   9   B   :   -0.015832754   -0.062044613   -0.020705117
  10   B   :    0.013514671    0.026089868   -0.015907519
  11   B   :   -0.144228653   -0.048666858    0.168982855
  12   B   :   -0.144176351   -0.111549939   -0.015505865

Difference to translation invariance:
           :   -0.0000000000   -0.0000000000   -0.0000000000

Difference to rotation invariance:
           :    0.0000000443   -0.0000000037   -0.0000000111

Norm of the Cartesian gradient     ...   19.3940091481
RMS gradient                       ...    3.2323348580
MAX gradient                       ...   11.6405133470
------------------------------------------------------------------------------
                         ORCA GEOMETRY RELAXATION STEP
------------------------------------------------------------------------------

Reading the OPT-File                    .... done
Getting information on internals        .... done
Copying old internal coords+grads       .... done
Making the new internal coordinates     .... (2022 redundants) done
Validating the new internal coordinates .... (2022 redundants) done
Calculating the B-matrix                .... done
Calculating the G,G- and P matrices     .... done
Transforming gradient to internals      .... done
Projecting the internal gradient        .... done
Number of atoms                         ....  12
Number of internal coordinates          ....  42
Current Energy                          ....    -9.493367662 Eh
Current gradient norm                   ....    19.394009148 Eh/bohr
Maximum allowed component of the step   ....  0.300
Current trust radius                    ....  0.300
Updating the Hessian (BFGS)             .... done
Forming the augmented Hessian           .... done
Diagonalizing the augmented Hessian     .... done
Last element of RFO vector              ....  0.988439444
Lowest eigenvalues of augmented Hessian:
 -21.599805790  0.010000000  0.010000000  0.010000000  0.010000000
Length of the computed step             ....  0.153389445
The final length of the internal step   ....  0.153389445
Converting the step to Cartesian space:
 Initial RMS(Int)=    0.0236685051
Transforming coordinates:
 Iter   0:  RMS(Cart)=    0.3094261898 RMS(Int)=    0.0265080182
 Iter   5:  RMS(Cart)=    0.0000303696 RMS(Int)=    0.0000134433
done
Storing new coordinates                 .... done
The predicted energy change is          ....   -11.054006485
Previously predicted energy change      ....    -0.203799210
Actually observed energy change         ....     4.209464223
Ratio of predicted to observed change   ....    20.654958450
New trust radius                        ....     0.200000000

                                .--------------------.
          ----------------------|Geometry convergence|-------------------------
          Item                value                   Tolerance       Converged
          ---------------------------------------------------------------------
          Energy change       4.2094642230            0.0000010000      NO
          RMS gradient       22.0720921963            0.0000300000      NO
          MAX gradient       76.1761137521            0.0001000000      NO
          RMS step            0.0236685051            0.0006000000      NO
          MAX step            0.0866611250            0.0010000000      NO
          -------------------------------------------------------------------------
          ........................................................
          Max(Bonds)      0.0095      Max(Angles)    4.97
          Max(Dihed)        3.29      Max(Improp)    0.00
          ---------------------------------------------------------------------

The optimization has not yet converged - more geometry cycles are needed


    ---------------------------------------------------------------------------
                         Redundant Internal Coordinates
                            (Angstroem and degrees)

        Definition                    Value    dE/dq     Step     New-Value
    ----------------------------------------------------------------------------
     1. B(B   4,B   1)                1.8513  4.791709 -0.0052    1.8462   
     2. B(B   4,B   0)                1.6783 13.645630 -0.0095    1.6688   
     3. B(B   5,B   2)                1.8049 -7.684125  0.0030    1.8080   
     4. B(B   6,B   0)                1.6296  8.479401 -0.0069    1.6227   
     5. B(B   7,B   2)                1.5563 -13.191464  0.0076    1.5639   
     6. B(B   8,B   2)                1.5898  0.067039 -0.0012    1.5886   
     7. B(B   9,B   6)                1.6624 -4.827400  0.0009    1.6634   
     8. B(B   9,B   7)                1.7347 -5.866620  0.0025    1.7372   
     9. B(B  10,B   3)                1.3735  4.569172  0.0024    1.3759   
    10. B(B  10,B   1)                1.8065 -2.713789 -0.0004    1.8060   
    11. B(B  11,B   9)                1.9008 -0.374736  0.0001    1.9009   
    12. B(B  11,B   7)                1.3460 -2.667285  0.0058    1.3518   
    13. A(B   4,B   0,B   6)          123.73 76.176114   -4.97    118.76   
    14. A(B   4,B   1,B  10)          126.47 24.114967   -1.69    124.79   
    15. A(B   5,B   2,B   8)          140.81  9.639763   -0.52    140.30   
    16. A(B   7,B   2,B   8)           89.84  8.093294   -0.53     89.31   
    17. A(B   5,B   2,B   7)          122.11 -29.264751    1.57    123.68   
    18. A(B   0,B   4,B   1)          118.44 57.512331   -3.30    115.14   
    19. A(B   0,B   6,B   9)          107.35 49.573846   -3.39    103.95   
    20. A(B   9,B   7,B  11)           75.01  2.302808   -0.22     74.79   
    21. A(B   2,B   7,B  11)          107.37 -9.316592    0.49    107.86   
    22. A(B   2,B   7,B   9)          112.81 -14.484700    0.75    113.56   
    23. A(B   7,B   9,B  11)           43.16 -0.307224    0.17     43.33   
    24. A(B   6,B   9,B  11)          166.53  5.425808   -0.05    166.48   
    25. A(B   6,B   9,B   7)          123.75  5.859076   -0.23    123.52   
    26. A(B   1,B  10,B   3)           92.68 -7.872894    0.49     93.17   
    27. A(B   7,B  11,B   9)           61.83 -1.995584    0.04     61.87   
    28. D(B   0,B   4,B   1,B  10)    -59.72 -55.014016    3.29    -56.43   
    29. D(B   1,B   4,B   0,B   6)     73.76 -6.416836   -0.22     73.54   
    30. D(B   9,B   6,B   0,B   4)    -35.00 -40.423684    1.78    -33.22   
    31. D(B  11,B   7,B   2,B   5)     10.78  6.008279   -0.37     10.41   
    32. D(B   9,B   7,B   2,B   8)     86.09 -0.374221    0.05     86.14   
    33. D(B  11,B   7,B   2,B   8)    166.74 -4.892138    0.21    166.95   
    34. D(B   9,B   7,B   2,B   5)    -69.87 10.526196   -0.53    -70.40   
    35. D(B  11,B   9,B   7,B   2)    102.86 -6.803293    0.33    103.20   
    36. D(B   6,B   9,B   7,B  11)    175.81 -0.002510    0.04    175.85   
    37. D(B   6,B   9,B   7,B   2)    -81.32 -6.805803    0.37    -80.95   
    38. D(B  11,B   9,B   6,B   0)    107.30 -1.383261   -0.06    107.25   
    39. D(B   7,B   9,B   6,B   0)     94.92 -6.290809    0.07     94.99   
    40. D(B   3,B  10,B   1,B   4)    -57.62 -32.409805    2.14    -55.49   
    41. D(B   7,B  11,B   9,B   6)    -15.10 -5.066953    0.16    -14.94   
    42. D(B   9,B  11,B   7,B   2)   -109.68 13.229424   -0.67   -110.35   
    ----------------------------------------------------------------------------

Geometry step timings:
Preparation and reading OPT file:      0.000 s ( 1.435 %)
Internal coordinates            :      0.000 s ( 2.444 %)
B/P matrices and projection     :      0.000 s (21.945 %)
Hessian update/contruction      :      0.001 s (26.780 %)
Making the step                 :      0.000 s (19.288 %)
Converting the step to Cartesian:      0.000 s ( 3.773 %)
Storing new data                :      0.000 s ( 2.285 %)
Checking convergence            :      0.000 s ( 2.763 %)
Final printing                  :      0.000 s (19.288 %)
Total time                      :      0.002 s

Time for energy+gradient        :      0.074 s
Time for complete geometry iter :      0.077 s

         *************************************************************
         *                GEOMETRY OPTIMIZATION CYCLE   3            *
         *************************************************************
---------------------------------
CARTESIAN COORDINATES (ANGSTROEM)
---------------------------------
  B     1.252136   -1.599004   -1.677855
  B     0.024438    1.103177   -1.632513
  B    -1.422590   -0.018390    0.647221
  B    -0.364775    1.210805    0.662328
  B    -0.139878   -0.712309   -1.924737
  B    -1.691427    1.566445   -0.180277
  B     1.754888   -1.855575   -0.156476
  B    -0.180650   -0.328397    1.545651
  B    -1.604994   -1.576144    0.394393
  B     1.302770   -0.474937    0.653595
  B     0.592761    1.851241   -0.090056
  B     0.477321    0.833088    1.758727

----------------------------
CARTESIAN COORDINATES (A.U.)
----------------------------
  NO LB    ZA    FRAG    MASS        X           Y           Z
   0 B   5.0000    0    10.810    2.366193   -3.021679   -3.170686
   1 B   5.0000    0    10.810    0.046181    2.084702   -3.085002
   2 B   5.0000    0    10.810   -2.688305   -0.034752    1.223070
   3 B   5.0000    0    10.810   -0.689325    2.288090    1.251619
   4 B   5.0000    0    10.810   -0.264330   -1.346069   -3.637226
   5 B   5.0000    0    10.810   -3.196334    2.960152   -0.340675
   6 B   5.0000    0    10.810    3.316258   -3.506529   -0.295696
   7 B   5.0000    0    10.810   -0.341380   -0.620581    2.920856
   8 B   5.0000    0    10.810   -3.032999   -2.978480    0.745294
   9 B   5.0000    0    10.810    2.461878   -0.897501    1.235115
  10 B   5.0000    0    10.810    1.120156    3.498339   -0.170182
  11 B   5.0000    0    10.810    0.902005    1.574308    3.323512

      -----------------------------------------------------------      
     |                   =====================                   |     
     |                           x T B                           |     
     |                   =====================                   |     
     |                         S. Grimme                         |     
     |          Mulliken Center for Theoretical Chemistry        |     
     |                    University of Bonn                     |     
      -----------------------------------------------------------      

   * xtb version 6.6.1 (unknown) compiled by 'builduser@buildhost' on 2023-08-07

   xtb is free software: you can redistribute it and/or modify it under
   the terms of the GNU Lesser General Public License as published by
   the Free Software Foundation, either version 3 of the License, or
   (at your option) any later version.
   
   xtb is distributed in the hope that it will be useful,
   but WITHOUT ANY WARRANTY; without even the implied warranty of
   MERCHANTABILITY or FITNESS FOR A PARTICULAR PURPOSE.  See the
   GNU Lesser General Public License for more details.
   
   Cite this work as:
   * C. Bannwarth, E. Caldeweyher, S. Ehlert, A. Hansen, P. Pracht,
     J. Seibert, S. Spicher, S. Grimme, WIREs Comput. Mol. Sci., 2020, 11,
     e01493. DOI: 10.1002/wcms.1493
   
   for GFN2-xTB:
   * C. Bannwarth, S. Ehlert and S. Grimme., J. Chem. Theory Comput., 2019,
     15, 1652-1671. DOI: 10.1021/acs.jctc.8b01176
   for GFN1-xTB:
   * S. Grimme, C. Bannwarth, P. Shushkov, J. Chem. Theory Comput., 2017,
     13, 1989-2009. DOI: 10.1021/acs.jctc.7b00118
   for GFN0-xTB:
   * P. Pracht, E. Caldeweyher, S. Ehlert, S. Grimme, ChemRxiv, 2019, preprint.
     DOI: 10.26434/chemrxiv.8326202.v1
   for GFN-FF:
   * S. Spicher and S. Grimme, Angew. Chem. Int. Ed., 2020, 59, 15665-15673.
     DOI: 10.1002/anie.202004239
   
   for ALPB and GBSA implicit solvation:
   * S. Ehlert, M. Stahn, S. Spicher, S. Grimme, J. Chem. Theory Comput.,
     2021, 17, 4250-4261. DOI: 10.1021/acs.jctc.1c00471
   
   for DFT-D4:
   * E. Caldeweyher, C. Bannwarth and S. Grimme, J. Chem. Phys., 2017,
     147, 034112. DOI: 10.1063/1.4993215
   * E. Caldeweyher, S. Ehlert, A. Hansen, H. Neugebauer, S. Spicher,
     C. Bannwarth and S. Grimme, J. Chem. Phys., 2019, 150, 154122.
     DOI: 10.1063/1.5090222
   * E. Caldeweyher, J.-M. Mewes, S. Ehlert and S. Grimme, Phys. Chem. Chem. Phys.
     2020, 22, 8499-8512. DOI: 10.1039/D0CP00502A
   
   for sTDA-xTB:
   * S. Grimme and C. Bannwarth, J. Chem. Phys., 2016, 145, 054103.
     DOI: 10.1063/1.4959605
   
   in the mass-spec context:
   * V. Asgeirsson, C. Bauer and S. Grimme, Chem. Sci., 2017, 8, 4879.
     DOI: 10.1039/c7sc00601b
   * J. Koopman and S. Grimme, ACS Omega 2019, 4, 12, 15120-15133.
     DOI: 10.1021/acsomega.9b02011
   
   for metadynamics refer to:
   * S. Grimme, J. Chem. Theory Comput., 2019, 155, 2847-2862
     DOI: 10.1021/acs.jctc.9b00143
   
   for SPH calculations refer to:
   * S. Spicher and S. Grimme, J. Chem. Theory Comput., 2021, 17, 1701-1714
     DOI: 10.1021/acs.jctc.0c01306
   
   with help from (in alphabetical order)
   P. Atkinson, C. Bannwarth, F. Bohle, G. Brandenburg, E. Caldeweyher
   M. Checinski, S. Dohm, S. Ehlert, S. Ehrlich, I. Gerasimov, C. Hölzer
   A. Katbashev, J. Koopman, C. Lavigne, S. Lehtola, F. März, M. Müller,
   F. Musil, H. Neugebauer, J. Pisarek, C. Plett, P. Pracht, F. Pultar,
   J. Seibert, P. Shushkov, S. Spicher, M. Stahn, M. Steiner, T. Strunk,
   J. Stückrath, T. Rose, and J. Unsleber
   
 * started run on 2026/04/17 at 12:14:33.605     

           -------------------------------------------------
          |                Calculation Setup                |
           -------------------------------------------------

          program call               : /usr/bin/xtb random_d1.50_007_m3_XTB.xyz --grad -c 0 -u 2 -P 1 --namespace random_d1.50_007_m3 --input random_d1.50_007_m3_XTB.input.tmp --acc 0.200000
          calculation namespace      : random_d1.50_007_m3
          coordinate file            : random_d1.50_007_m3_XTB.xyz
          omp threads                :                     1

   ID    Z sym.   atoms
    1    5 B      1-12

           -------------------------------------------------
          |                 G F N 2 - x T B                 |
           -------------------------------------------------

        Reference                      10.1021/acs.jctc.8b01176
      * Hamiltonian:
        H0-scaling (s, p, d)           1.850000    2.230000    2.230000
        zeta-weighting                 0.500000
      * Dispersion:
        s8                             2.700000
        a1                             0.520000
        a2                             5.000000
        s9                             5.000000
      * Repulsion:
        kExp                           1.500000    1.000000
        rExp                           1.000000
      * Coulomb:
        alpha                          2.000000
        third order                    shell-resolved
        anisotropic                    true
        a3                             3.000000
        a5                             4.000000
        cn-shift                       1.200000
        cn-exp                         4.000000
        max-rad                        5.000000

q/qsh data taken from xtbrestart
CAMM data taken from xtbrestart

          ...................................................
          :                      SETUP                      :
          :.................................................:
          :  # basis functions                  48          :
          :  # atomic orbitals                  48          :
          :  # shells                           24          :
          :  # electrons                        36          :
          :  max. iterations                   250          :
          :  Hamiltonian                  GFN2-xTB          :
          :  restarted?                       true          :
          :  GBSA solvation                  false          :
          :  PC potential                    false          :
          :  electronic temp.          300.0000000     K    :
          :  accuracy                    0.2000000          :
          :  -> integral cutoff          0.3198970E+02      :
          :  -> integral neglect         0.2000000E-08      :
          :  -> SCF convergence          0.2000000E-06 Eh   :
          :  -> wf. convergence          0.2000000E-04 e    :
          :  Broyden damping             0.4000000          :
          ...................................................

 iter      E             dE          RMSdq      gap      omega  full diag
   1    -13.2479095 -0.132479E+02  0.767E+00    0.26       0.0  T
   2     -6.7787074  0.646920E+01  0.148E+01    0.44       1.0  T
   3    -10.8859392 -0.410723E+01  0.117E+01    0.38       1.0  T
   4    -13.8113674 -0.292543E+01  0.489E+00    0.36       1.0  T
   5    -13.2322968  0.579071E+00  0.577E+00    0.32       1.0  T
   6    -12.7318187  0.500478E+00  0.692E+00    0.51       1.0  T
   7    -13.4907835 -0.758965E+00  0.472E+00    0.45       1.0  T
   8    -13.5316612 -0.408776E-01  0.434E+00    0.32       1.0  T
   9    -13.7846552 -0.252994E+00  0.323E+00    0.31       1.0  T
  10    -13.9303947 -0.145740E+00  0.223E+00    0.34       1.0  T
  11    -13.9455813 -0.151866E-01  0.200E+00    0.34       1.0  T
  12    -13.9816206 -0.360394E-01  0.164E+00    0.37       1.0  T
  13    -13.9984212 -0.168006E-01  0.138E+00    0.37       1.0  T
  14    -14.0087966 -0.103753E-01  0.122E+00    0.39       1.0  T
  15    -14.0122706 -0.347407E-02  0.111E+00    0.41       1.0  T
  16    -14.0171813 -0.491070E-02  0.932E-01    0.40       1.0  T
  17    -14.0092141  0.796723E-02  0.124E+00    0.41       1.0  T
  18    -14.0192758 -0.100617E-01  0.525E-01    0.37       1.0  T
  19    -14.0222192 -0.294345E-02  0.327E-01    0.39       1.0  T
  20    -14.0217777  0.441477E-03  0.355E-01    0.39       1.0  T
  21    -14.0218176 -0.398457E-04  0.356E-01    0.39       1.0  T
  22    -14.0214385  0.379089E-03  0.452E-01    0.39       1.0  T
  23    -14.0215143 -0.757608E-04  0.402E-01    0.40       1.0  T
  24    -14.0220804 -0.566159E-03  0.335E-01    0.39       1.0  T
  25    -14.0231946 -0.111419E-02  0.149E-01    0.39       1.0  T
  26    -14.0233799 -0.185265E-03  0.854E-02    0.39       1.0  T
  27    -14.0234293 -0.494420E-04  0.476E-02    0.39       1.0  T
  28    -14.0234564 -0.271057E-04  0.975E-03    0.39       3.0  T
  29    -14.0234566 -0.135425E-06  0.923E-03    0.39       3.1  T
  30    -14.0234580 -0.143372E-05  0.240E-03    0.39      12.0  T
  31    -14.0234580 -0.260078E-07  0.176E-03    0.39      16.4  T
  32    -14.0234580 -0.182856E-07  0.605E-04    0.39      47.7  T
  33    -14.0234580 -0.112653E-08  0.337E-04    0.39      85.7  T
  34    -14.0234580 -0.190843E-09  0.235E-04    0.39     122.6  T
  35    -14.0234580 -0.837561E-09  0.881E-05    0.39     327.7  T
  36    -14.0234580 -0.455422E-10  0.218E-05    0.39    1324.5  T

   *** convergence criteria satisfied after 36 iterations ***

         #    Occupation            Energy/Eh            Energy/eV
      -------------------------------------------------------------
         1        2.0000           -0.4421306             -12.0310
       ...           ...                  ...                  ...
        13        2.0000           -0.2627891              -7.1509
        14        2.0000           -0.2482223              -6.7545
        15        2.0000           -0.2411716              -6.5626
        16        1.9972           -0.2308396              -6.2815
        17        1.8432           -0.2268486              -6.1729
        18        1.1586           -0.2236647              -6.0862
        19        1.0004           -0.2186909              -5.9509 (HOMO)
        20        0.0006           -0.2044656              -5.5638 (LUMO)
        21                         -0.1938680              -5.2754
        22                         -0.1902833              -5.1779
        23                         -0.1741148              -4.7379
        24                         -0.1531655              -4.1678
[...]
        21                         -0.1683043              -4.5798
        22                         -0.1657262              -4.5096
        23                         -0.1212033              -3.2981
        24                         -0.1181050              -3.2138
       ...                                ...                  ...
        48                          1.2485624              33.9751
      -------------------------------------------------------------
                  HL-Gap            0.0329575 Eh            0.8968 eV
             Fermi-level           -0.2243305 Eh           -6.1043 eV

 transition dipole moment (au) for excitation:          18          19
     X       Y       Z   
  -0.0584  -0.0060   0.0672  total (au/Debye):    0.089   0.227
 dE (eV)             :    0.235
 oscillator strength :  0.64699E-04

 SCC (total)                   0 d,  0 h,  0 min,  0.032 sec
 SCC setup                      ...        0 min,  0.000 sec (  0.723%)
 Dispersion                     ...        0 min,  0.000 sec (  0.229%)
 classical contributions        ...        0 min,  0.000 sec (  0.086%)
 integral evaluation            ...        0 min,  0.003 sec (  8.022%)
 iterations                     ...        0 min,  0.015 sec ( 47.704%)
 molecular gradient             ...        0 min,  0.008 sec ( 25.937%)
 printout                       ...        0 min,  0.006 sec ( 17.228%)

         :::::::::::::::::::::::::::::::::::::::::::::::::::::
         ::                     SUMMARY                     ::
         :::::::::::::::::::::::::::::::::::::::::::::::::::::
         :: total energy             -14.233147655270 Eh    ::
         :: gradient norm              0.012413176683 Eh/a0 ::
         :: HOMO-LUMO gap              0.896819372640 eV    ::
         ::.................................................::
         :: SCC energy               -14.475692451713 Eh    ::
         :: -> isotropic ES            0.080876250111 Eh    ::
         :: -> anisotropic ES          0.002079919169 Eh    ::
         :: -> anisotropic XC         -0.025821395743 Eh    ::
         :: -> dispersion             -0.010668805935 Eh    ::
         :: repulsion energy           0.242539428626 Eh    ::
         :: add. restraining           0.000000000000 Eh    ::
         :: total charge               0.000000000128 e     ::
         :::::::::::::::::::::::::::::::::::::::::::::::::::::


Property printout bound to 'properties.out'

           -------------------------------------------------
          | TOTAL ENERGY              -14.233147655270 Eh   |
          | GRADIENT NORM               0.012413176683 Eh/α |
          | HOMO-LUMO GAP               0.896819372640 eV   |
           -------------------------------------------------

------------------------------------------------------------------------
 * finished run on 2026/04/17 at 12:14:37.056     
------------------------------------------------------------------------
 total:
 * wall-time:     0 d,  0 h,  0 min,  0.045 sec
 *  cpu-time:     0 d,  0 h,  0 min,  0.045 sec
 * ratio c/w:     0.991 speedup
 SCF:
 * wall-time:     0 d,  0 h,  0 min,  0.033 sec
 *  cpu-time:     0 d,  0 h,  0 min,  0.032 sec
 * ratio c/w:     0.989 speedup


-------------------------   --------------------
FINAL SINGLE POINT ENERGY       -14.233147655270
-------------------------   --------------------


-------------
DIPOLE MOMENT
-------------
                                X             Y             Z
Total Dipole Moment    :     -0.74700      -0.05000       0.80900
                        -----------------------------------------
Magnitude (a.u.)       :      1.10227
Magnitude (Debye)      :      2.80174


------------------
CARTESIAN GRADIENT
------------------

   1   B   :    0.002390266    0.001912670   -0.003314111
   2   B   :   -0.001302272    0.002227629    0.002269412
   3   B   :    0.000488166    0.000191121    0.001394033
   4   B   :   -0.001293035    0.001153600   -0.003361291
   5   B   :    0.002304149   -0.004253188    0.000394769
   6   B   :    0.000077663   -0.000060348   -0.003306412
   7   B   :   -0.000139353    0.001347399    0.000426092
   8   B   :   -0.000071876    0.001498161    0.000126139
   9   B   :   -0.004209475   -0.000232302    0.001494292
  10   B   :   -0.001033738    0.000191772   -0.000941394
  11   B   :    0.002125767   -0.002767918    0.005486344
  12   B   :    0.000663737   -0.001208597   -0.000667872

Difference to translation invariance:
           :    0.0000000000   -0.0000000000    0.0000000000

Difference to rotation invariance:
           :    0.0000000250    0.0000000288    0.0000000520

Norm of the Cartesian gradient     ...    0.0124131767
RMS gradient                       ...    0.0020688628
MAX gradient                       ...    0.0054863441
------------------------------------------------------------------------------
                         ORCA GEOMETRY RELAXATION STEP
------------------------------------------------------------------------------

Reading the OPT-File                    .... done
Getting information on internals        .... done
Copying old internal coords+grads       .... done
Making the new internal coordinates     .... (2022 redundants) done
Validating the new internal coordinates .... (2022 redundants) done
Calculating the B-matrix                .... done
Calculating the G,G- and P matrices     .... done
Transforming gradient to internals      .... done
Projecting the internal gradient        .... done
Number of atoms                         ....  12
Number of internal coordinates          ....  74
Current Energy                          ....   -14.233147655 Eh
Current gradient norm                   ....     0.012413177 Eh/bohr
Maximum allowed component of the step   ....  0.300
Current trust radius                    ....  0.467
Updating the Hessian (BFGS)             .... done
Forming the augmented Hessian           .... done
Diagonalizing the augmented Hessian     .... done
Last element of RFO vector              ....  0.904812924
Lowest eigenvalues of augmented Hessian:
 -0.001025897  0.001853345  0.003233580  0.004712369  0.009112891
Length of the computed step             ....  0.470604809
Warning: the length of the step is outside the trust region - taking restricted step instead
The input lambda is                     ....     0.000460
   iter:   5  x=   -0.001049  g=  159.924998 f(x)=     0.002937
The output lambda is                    ....    -0.001049 (8 iterations)
The final length of the internal step   ....  0.466666667
Converting the step to Cartesian space:
 Initial RMS(Int)=    0.0542488981
Transforming coordinates:
 Iter   0:  RMS(Cart)=    0.0358996667 RMS(Int)=    0.0527476726
 Iter   5:  RMS(Cart)=    0.0000012443 RMS(Int)=    0.0000012486
done
Storing new coordinates                 .... done
The predicted energy change is          ....    -0.000624636
Previously predicted energy change      ....    -0.000548378
Actually observed energy change         ....    -0.000283005
Ratio of predicted to observed change   ....     0.516076349
New trust radius                        ....     0.466666667

                                .--------------------.
          ----------------------|Geometry convergence|-------------------------
          Item                value                   Tolerance       Converged
          ---------------------------------------------------------------------
          Energy change      -0.0002830051            0.0000010000      NO
          RMS gradient        0.0010749870            0.0000300000      NO
          MAX gradient        0.0036592911            0.0001000000      NO
          RMS step            0.0542488981            0.0006000000      NO
          MAX step            0.2207588342            0.0010000000      NO
          -------------------------------------------------------------------------
          ........................................................
          Max(Bonds)      0.0713      Max(Angles)    3.69
          Max(Dihed)       12.65      Max(Improp)    0.00
          ---------------------------------------------------------------------

The optimization has not yet converged - more geometry cycles are needed


    ---------------------------------------------------------------------------
                         Redundant Internal Coordinates
                            (Angstroem and degrees)

        Definition                    Value    dE/dq     Step     New-Value
    ----------------------------------------------------------------------------
     1. B(B   4,B   1)                1.5389  0.001669 -0.0107    1.5283   
     2. B(B   4,B   0)                1.5285 -0.002199 -0.0035    1.5250   
     3. B(B   5,B   1)                2.1220 -0.003301  0.0713    2.1933   
     4. B(B   5,B   2)                1.6075 -0.000938 -0.0006    1.6069   
     5. B(B   6,B   0)                1.5224 -0.000284  0.0063    1.5287   
     6. B(B   7,B   2)                1.5462 -0.000865  0.0041    1.5503   
     7. B(B   8,B   0)                1.6639  0.002584 -0.0173    1.6465   
     8. B(B   8,B   4)                1.7330  0.000372  0.0075    1.7404   
     9. B(B   8,B   2)                1.6113  0.000569 -0.0168    1.5945   
    10. B(B   9,B   7)                1.5806 -0.000111 -0.0035    1.5770   
    11. B(B   9,B   6)                1.5474 -0.000929 -0.0015    1.5458   
    12. B(B  10,B   3)                1.5202 -0.003659  0.0077    1.5279   
    13. B(B  10,B   1)                1.5314  0.000337  0.0047    1.5362   
    14. B(B  11,B   9)                1.6162 -0.001127  0.0015    1.6177   
    15. B(B  11,B   7)                1.7752  0.000195  0.0027    1.7779   
    16. A(B   4,B   0,B   8)           65.60 -0.000040    0.58     66.18   
    17. A(B   4,B   0,B   6)          120.55 -0.000925   -1.39    119.16   
    18. A(B   6,B   0,B   8)           76.18 -0.000653   -0.33     75.85   
    19. A(B   5,B   1,B  10)           50.41 -0.002065   -2.63     47.78   
    20. A(B   4,B   1,B  10)          144.03 -0.001608    0.86    144.89   
    21. A(B   4,B   1,B   5)          102.38  0.001050   -2.06    100.32   
    22. A(B   5,B   2,B   7)           94.64 -0.001262    0.19     94.84   
    23. A(B   7,B   2,B   8)          105.24 -0.000181   -1.60    103.64   
    24. A(B   5,B   2,B   8)           90.81 -0.000617    0.80     91.61   
    25. A(B   0,B   4,B   1)          141.72 -0.001010    3.69    145.41   
    26. A(B   1,B   4,B   8)           98.31 -0.001801    3.36    101.67   
    27. A(B   0,B   4,B   8)           60.97  0.001244   -2.78     58.19   
    28. A(B   1,B   5,B   2)          111.13  0.000718   -0.83    110.30   
    29. A(B   0,B   6,B   9)          143.12  0.000081    0.63    143.75   
    30. A(B   9,B   7,B  11)           57.23 -0.000433    0.16     57.39   
    31. A(B   2,B   7,B  11)           98.67 -0.000140   -0.13     98.54   
    32. A(B   2,B   7,B   9)          111.73 -0.000335   -1.27    110.46   
    33. A(B   2,B   8,B   4)          133.70  0.000703    0.07    133.77   
    34. A(B   0,B   8,B   4)           53.44 -0.001204    2.20     55.63   
    35. A(B   0,B   8,B   2)          154.46  0.000067    2.65    157.11   
    36. A(B   7,B   9,B  11)           67.45  0.000357    0.16     67.61   
    37. A(B   6,B   9,B   7)          113.23  0.001244   -0.19    113.04   
    38. A(B   1,B  10,B   3)          127.82  0.002555   -0.88    126.94   
    39. A(B   7,B  11,B   9)           55.32  0.000077   -0.31     55.01   
    40. D(B   1,B   4,B   0,B   6)      9.04 -0.000193   -6.56      2.48   
    41. D(B   0,B   4,B   1,B  10)     -7.54 -0.000532   -6.61    -14.15   
    42. D(B   8,B   4,B   1,B   5)      9.06 -0.000052   -2.72      6.34   
    43. D(B   8,B   4,B   0,B   6)    -55.08  0.000134   -4.38    -59.46   
    44. D(B   0,B   4,B   1,B   5)    -43.60 -0.000404    0.48    -43.12   
    45. D(B   8,B   4,B   1,B  10)     45.12 -0.000180   -9.81     35.30   
    46. D(B   1,B   4,B   0,B   8)     64.12 -0.000327   -2.18     61.95   
    47. D(B   1,B   5,B   2,B   7)    122.07 -0.000377   -0.14    121.93   
    48. D(B   2,B   5,B   1,B  10)   -173.20  0.001794   -2.98   -176.18   
    49. D(B   1,B   5,B   2,B   8)     16.71 -0.000094    0.84     17.55   
    50. D(B   2,B   5,B   1,B   4)    -19.86 -0.000087   -0.09    -19.95   
    51. D(B   9,B   6,B   0,B   4)     10.06  0.000171    5.15     15.20   
    52. D(B   9,B   6,B   0,B   8)    -40.21  0.000112    2.79    -37.42   
    53. D(B   9,B   7,B   2,B   8)     18.18 -0.000627   -0.58     17.60   
    54. D(B   9,B   7,B   2,B   5)    -73.93  0.000380   -1.27    -75.21   
    55. D(B  11,B   7,B   2,B   8)     76.26 -0.001123   -0.53     75.73   
    56. D(B  11,B   7,B   2,B   5)    -15.85 -0.000117   -1.23    -17.08   
    57. D(B   2,B   8,B   4,B   0)    147.68 -0.000561    4.34    152.02   
    58. D(B   0,B   8,B   4,B   1)   -145.71  0.000585   -1.25   -146.96   
    59. D(B   4,B   8,B   2,B   7)   -109.60  0.001679   -2.59   -112.19   
    60. D(B   4,B   8,B   2,B   5)    -14.56  0.000193   -3.19    -17.75   
    61. D(B   0,B   8,B   2,B   7)    -14.50  0.000178    3.58    -10.92   
    62. D(B   0,B   8,B   2,B   5)     80.54 -0.001308    2.98     83.52   
    63. D(B   4,B   8,B   0,B   6)    133.35 -0.000649   -3.06    130.29   
    64. D(B   2,B   8,B   0,B   6)     17.05  0.000069   -5.39     11.67   
    65. D(B   2,B   8,B   4,B   1)      1.97  0.000024    3.09      5.06   
    66. D(B   2,B   8,B   0,B   4)   -116.29  0.000718   -2.33   -118.62   
    67. D(B  11,B   9,B   7,B   2)     86.35 -0.000143    0.16     86.51   
    68. D(B   6,B   9,B   7,B  11)   -119.21  0.000419   -0.79   -119.99   
    69. D(B   6,B   9,B   7,B   2)    -32.86  0.000276   -0.62    -33.48   
    70. D(B   7,B   9,B   6,B   0)     58.82  0.000105   -1.66     57.16   
    71. D(B   3,B  10,B   1,B   5)     54.70  0.001121    6.00     60.70   
    72. D(B   3,B  10,B   1,B   4)      6.44 -0.000337   12.65     19.09   
    73. D(B   9,B  11,B   7,B   2)   -110.32  0.000279    1.02   -109.30   
    74. D(B   7,B  11,B   6,B   0)    105.78  0.000777   -1.81    103.98   
    ----------------------------------------------------------------------------

Geometry step timings:
Preparation and reading OPT file:      0.000 s ( 0.709 %)
Internal coordinates            :      0.000 s ( 0.926 %)
B/P matrices and projection     :      0.001 s (12.746 %)
Hessian update/contruction      :      0.001 s (12.943 %)
Making the step                 :      0.003 s (52.561 %)
Converting the step to Cartesian:      0.000 s ( 2.600 %)
Storing new data                :      0.000 s ( 1.478 %)
Checking convergence            :      0.000 s ( 2.403 %)
Final printing                  :      0.001 s (13.593 %)
Total time                      :      0.005 s

Time for energy+gradient        :      0.079 s
Time for complete geometry iter :      0.087 s




    ----------------------------------------------------------------------------
                                  WARNING !!!
       The optimization did not converge but reached the maximum number of
       optimization cycles.
       Please check your results very carefully.
    ----------------------------------------------------------------------------



--------------------------------
SUGGESTED CITATIONS FOR THIS RUN
--------------------------------

Below you find a list of papers that are relevant to this ORCA run
We neither can nor want to force you to cite these papers, but we appreciate if you do
You receive ORCA, which is the product of decades of hard work by many enthusiastic individuals, for free
The only thing we kindly ask in return is that you cite our papers,
We deeply appreciate it, if you show your appreciation for ORCA by not just citing the generic ORCA reference.

Please note that relegating all ORCA citations to the supporting information does *not* help us.
SI sections are not indexed - citations you put there will not count into any citation statistics
But we need these citations in order to attract the funding resources that allow us to do what we are doing

Therefore, if you are a happy ORCA user, please consider citing a few of the papers listed below in the main body of your paper

In addition to the list printed below, the program has created the file random_d1.50_007_m3.bibtex that contains the list in bibtex format
You can import this file easily into all common literature databanks and citation aid programs

It goes without saying that in many instances, there are alternative algorithms to achieve similar
results as the ones you have gotten from ORCA. It is, of course, also the case that in some instances
ORCA just re-implements algorithms worked out by others. We are fully aware of that and we are also
fully appreciative of our colleagues work. Hence this citation list should not be read as indicating
that the listed papers, which are focused on our own work, are the only ones worth citing. It simply
meant to make it easier for users to cite ORCA specific papers. It is not a substitute for doing your
own literature research and citing the relevant literature in a scientifically appropriate manner.

List of essential papers. We consider these as the minimum necessary citations

  1. Bannwarth, C.; Ehlert, S.; Grimme, S.
     GFN2-xTB—An Accurate and Broadly Parametrized Self-Consistent Tight-Binding Quantum Chemical Method with Multipole Electrostatics and Density-Dependent Dispersion Contributions
     J. Chem. Theory Comput. 2019 15(3), 1652-1671
     doi.org/10.1021/acs.jctc.8b01176
  2. Neese, F.
     Software update: the ORCA program system, version 6.0
     WIRES Comput. Molec. Sci. 2025 15(1), e70019
     doi.org/10.1002/wcms.70019

List of papers to cite with high priority. The work reported in these papers was absolutely
necessary for this run to complete.
Our perspective: the developers of density functionals and basis sets usually get cited in chemistry papers
Good! But without the algorithms to do something with them, the functionals or basis sets would not do anything.
Hence, in our opinion, the algorithm design and method developments papers are equally worthy of getting cited

  1. Bannwarth, C.; Caldeweyher, E.; Ehlert, S.; Hansen, A.; Pracht, P.; Seibert, J.; Spicher, S.; Grimme, S.
     Extended tight-binding quantum chemistry methods
     WIRES Comput. Molec. Sci. 2020 11(2), e1493
     doi.org/10.1002/wcms.1493

List of suggested additional citations. These are papers that are important in the 'surrounding' of 
of this run, or papers that preceded the highly important papers. If you like your results we are grateful for a citation.

  1. Neese, F.
     The ORCA program system
     WIRES Comput. Molec. Sci. 2012 2(1), 73-78
     doi.org/10.1002/wcms.81
  2. Neese, F.
     Software update: the ORCA program system, version 4.0
     WIRES Comput. Molec. Sci. 2018 8(1), 1-6
     doi.org/10.1002/wcms.1327
  3. Neese, F.; Wennmohs, F.; Becker, U.; Riplinger, C.
     The ORCA quantum chemistry program package
     J. Chem. Phys. 2020 152(22), 224108
     doi.org/10.1063/5.0004608
  4. Neese, F.
     Software update: The ORCA program system—Version 5.0
     WIRES Comput. Molec. Sci. 2022 12(1), e1606
     doi.org/10.1002/wcms.1606

List of optional additional citations

  1. Neese, F.
     Approximate second-order SCF convergence for spin unrestricted wavefunctions
     Chem. Phys. Lett. 2000 325(1-3), 93-98
     doi.org/10.1016/s0009-2614(00)00662-x

Timings for individual modules:

Sum of individual times          ...        3.316 sec (=   0.055 min)
Geometry relaxation              ...        0.219 sec (=   0.004 min)   6.6 %
XTB module                       ...        3.097 sec (=   0.052 min)  93.4 %
                             ****ORCA TERMINATED NORMALLY****
TOTAL RUN TIME: 0 days 0 hours 0 minutes 3 seconds 866 msec
