
                                 *****************
                                 * O   R   C   A *
                                 *****************

                                            #,                                       
                                            ###                                      
                                            ####                                     
                                            #####                                    
                                            ######                                   
                                           ########,                                 
                                     ,,################,,,,,                         
                               ,,#################################,,                 
                          ,,##########################################,,             
                       ,#########################################, ''#####,          
                    ,#############################################,,   '####,        
                  ,##################################################,,,,####,       
                ,###########''''           ''''###############################       
              ,#####''   ,,,,##########,,,,          '''####'''          '####       
            ,##' ,,,,###########################,,,                        '##       
           ' ,,###''''                  '''############,,,                           
         ,,##''                                '''############,,,,        ,,,,,,###''
      ,#''                                            '''#######################'''  
     '                                                          ''''####''''         
             ,#######,   #######,   ,#######,      ##                                
            ,#'     '#,  ##    ##  ,#'     '#,    #''#        ,####,    ,#,          
            ##       ##  ##   ,#'  ##            #'  '#       #'       ,# #          
            ##       ##  #######   ##           ,######,      #####,      #          
            '#,     ,#'  ##    ##  '#,     ,#' ,#      #,     #,   #      #          
             '#######'   ##     ##  '#######'  #'      '#     '####' #    #          



                #########################################################
                #                        -***-                          #
                #          Department of theory and spectroscopy        #
                #                                                       #
                #                      Frank Neese                      #
                #                                                       #
                #     Directorship, Architecture, Infrastructure        #
                #                    SHARK, DRIVERS                     #
                #        Core code/Algorithms in most modules           #
                #                                                       #
                #        Max Planck Institute fuer Kohlenforschung      #
                #                Kaiser Wilhelm Platz 1                 #
                #                 D-45470 Muelheim/Ruhr                 #
                #                      Germany                          #
                #                                                       #
                #                  All rights reserved                  #
                #                        -***-                          #
                #########################################################


                         Program Version 6.1.1  -  RELEASE   -
                                (GIT: $487d211c$)
                          ($2025-11-21 10:33:24 +0100$)
                                                                         
                                  - NO-DMRG VERSION -                    
                                                                         


 With contributions from (in alphabetic order):
[Max-Planck-Institut fuer Kohlenforschung]                               
  Daniel Aravena         : Magnetic Suceptibility                        
  Michael Atanasov       : Ab Initio Ligand Field Theory (pilot matlab implementation)
  Alexander A. Auer      : GIAO ZORA, VPT2 properties, NMR spectrum      
  Ute Becker             : All parallelization in ORCA, NUMFREQ, NUMCALC 
  Giovanni Bistoni       : ED, misc. LED, open-shell LED, HFLD           
  Dmytro Bykov           : pre 5.0 version of the SCF Hessian            
  Marcos Casanova-Páez   : Triplet and SCS-CIS(D). UHF-(DLPNO)-IP/EA/STEOM-CCSD. UHF-CVS-IP/STEOM-CCSD   
  Vijay G. Chilkuri      : MRCI spin determinant printing, contributions to CSF-ICE 
  Pauline Colinet        : FMM embedding                                 
  Dipayan Datta          : RHF DLPNO-CCSD density                        
  Achintya Kumar Dutta   : EOM-CC, STEOM-CC                              
  Nicolas Foglia         : Exact transition moments, OPA infrastructure, MCD improvements    
  Dmitry Ganyushin       : Spin-Orbit,Spin-Spin,Magnetic field MRCI      
  Miquel Garcia-Rates    : C-PCM and meta-GGA Hessian, CCSD/C-PCM, Gaussian charge scheme 
  Tiago L. C. Gouveia    : GS-ROHF, GS-ROCIS                             
  Yang Guo               : DLPNO-NEVPT2, F12-NEVPT2, CIM, IAO-localization        
  Andreas Hansen         : Spin unrestricted coupled pair/coupled cluster methods 
  Ingolf Harden          : AUTO-CI MPn and infrastructure                
  Benjamin Helmich-Paris : MC-RPA, TRAH-(SCF,CASSCF), AVAS, COSX integrals, SCF dyn. polar., MC-PDFT, srDFT 
  Lee Huntington         : MR-EOM, pCC                                   
  Robert Izsak           : Overlap fitted RIJCOSX, COSX-SCS-MP3, EOM     
  Riya Kayal             : Wick's Theorem for AUTO-CI, AUTO-CI UHF-CCSDT 
  Emily Kempfer          : AUTO-CI RHF CISDT and CCSDT, approximate NEVPT4
  Christian Kollmar      : KDIIS, OOCD, Brueckner-CCSD(T), CCSD density, CASPT2, CASPT2-K, improved NEVPT2 
  Axel Koslowski         : Symmetry handling                             
  Simone Kossmann        : meta-GGA functionals, TD-DFT gradient, OOMP2, (MP2 Hessian; deprecated post 5.0) 
  Lucas Lang             : DCDCAS, Hyperfine gauge corrections, ICE-SOC+SSC
  Marvin Lechner         : AUTO-CI (C++ implementation), FIC-MRCC        
  Spencer Leger          : CASSCF response                               
  Dagmar Lenk            : GEPOL surface, SMD, ORCA-2-JSON               
  Dimitrios Liakos       : Extrapolation schemes; Compound Job, Property file
  Dimitrios Manganas     : Further ROCIS development; embedding schemes. LFT, Crystal Embedding 
  Dimitrios Pantazis     : SARC Basis sets                               
  Anastasios Papadopoulos: AUTO-CI, single reference methods and gradients 
  Taras Petrenko         : pre 6.0 DFT Hessian and TD-DFT gradient,  ECA, NRVS 
  Petra Pikulova         : Analytic Raman intensities                    
  Peter Pinski           : DLPNO-MP2, DLPNO-MP2 Gradient                 
  Shashank Vittal Rao    : ES-AILFT, MagRelax                            
  Christoph Reimann      : Effective Core Potentials                     
  Marius Retegan         : Local ZFS, SOC                                
  Christoph Riplinger    : Optimizer, TS searches, QM/MM, DLPNO-CCSD(T), (RO)-DLPNO pert. Triples 
  Michael Roemelt        : Original ROCIS implementation, recursive CI coupling coefficients
  Masaaki Saitow         : Open-shell DLPNO-CCSD energy and density      
  Barbara Sandhoefer     : DKH picture change effects                    
  Yorick L. A. Schmerwitz: GMF and freeze-and-release deltaSCF, NEB S-IDPP initial path                    
  Kantharuban Sivalingam : CASSCF convergence/infrastructure, NEVPT2, NEVPT3, NEVPT4(SD), FIC-MRCI and CEPA variants
  Bernardo de Souza      : ESD, SOC TD-DFT                               
  Georgi L. Stoychev     : AutoAux, RI-MP2 NMR, DLPNO-MP2 response, X2C  
  Van Anh Tran           : RI-MP2 g-tensors                              
  Willem Van den Heuvel  : Paramagnetic NMR                              
  Zikuan Wang            : NOTCH, Electric field optimization            
  Frank Wennmohs         : Technical directorship and infrastructure     
  Hang Xu                : AUTO-CI-Response properties                   
                                                                         
[FACCTs GmbH]                                                            
  Markus Bursch, Nicolas Foglia, Miquel Garcia-Rates, Ingolf Harden, Hagen Neugebauer, Anastasios Papadopoulos, 
  Christoph Riplinger, Bernardo de Souza, Georgi L. Stoychev                                                    
                                                                 
  APM, various basis sets, CI-OPT, improved COSX, DLPNO-Multilevel,           
  DOCKER, DRACO, updates on ESD, Fragmentator, GOAT, IRC, LR-CPCM, L-BFGS, MBIS, meta-GGA TD-DFT gradient, ML-optimized integration grids, 
  MM, NACMEs, nearIR, NEB, NEB-TS, NL-DFT gradient (VV10), 2- and 3-layer-ONIOM, interface openCOSMO-RS, QMMM,   
  Crystal-QMMM, RESP, rigid body optimization, SF, symmetry and pop. for TD-DFT, various functionals, SOLVATOR                                   
                                                                         
[Other institutions]                                                     
  V. Asgeirsson          : NEB                                           
  Christoph Bannwarth    : sTDA-DFT, sTD-DFT, PBEh-3c, B97-3c, D3        
  Giovanni Bistoni       : ETS/NOCV, ADLD/ADEX, COVALED                  
  Martin Brehm           : Molecular dynamics                            
  Ronald Cardenas        : ETS/NOCV                                      
  Martina Colucci        : COVALED                                       
  Sebastian Ehlert       : rSCAN, r2SCAN, r2SCAN-3c, D4, dhf basis sets  
  Marvin Friede          : D4 for Fr, Ra, Ac-Lr                          
  Lars Goerigk           : TD-DFT with DH, B97 family of functionals     
  Stefan Grimme          : VdW corrections, initial TS optimization, DFT functionals, gCP, sTDA/sTD-DF 
  Waldemar Hujo          : DFT-NL                                        
  H. Jonsson             : NEB                                           
  Holger Kruse           : gCP                                           
  Marcel Mueller         : wB97X-3c, vDZP basis set                      
  Hagen Neugebauer       : wr2SCAN, Native XTB                           
  Gianluca Regni         : ADLD/ADEX                                     
  Tobias Risthaus        : pre 6.0 range-separated hybrid DFT and stability analysis
  Lukas Wittmann         : regularized MP2, r2SCAN double-hybrids, wr2SCAN        
                                                                         
We gratefully acknowledge several colleagues who have allowed us to      
interface, adapt or use parts of their codes:                            
  Ed Valeev, F. Pavosevic, A. Kumar             : LibInt (2-el integral package), F12 methods 
  Garnet Chan, S. Sharma, J. Yang, R. Olivares  : DMRG                   
  Ulf Ekstrom                                   : XCFun DFT Library      
  Mihaly Kallay                                 : mrcc  (arbitrary order and MRCC methods)
  Frank Weinhold                                : gennbo (NPA and NBO analysis)           
  Simon Mueller                                 : openCOSMO-RS                            
  Christopher J. Cramer and Donald G. Truhlar   : smd solvation model                     
  S Lehtola, MJT Oliveira, MAL Marques          : LibXC Library                           
  Liviu Ungur et al                             : ANISO software                          


 Your calculation uses the libint2 library for the computation of 2-el integrals
 For citations please refer to: http://libint.valeyev.net

 Your ORCA version has been built with support for libXC version: 7.0.0
 For citations please refer to: https://libxc.gitlab.io

 This ORCA versions uses:
   CBLAS   interface :  Fast vector & matrix operations
   LAPACKE interface :  Fast linear algebra routines
   SCALAPACK package :  Parallel linear algebra routines
   Shared memory     :  Shared parallel matrices
   BLAS/LAPACK       :  OpenBLAS 0.3.29  USE64BITINT DYNAMIC_ARCH NO_AFFINITY Zen SINGLE_THREADED
        Core in use  :  Zen
   Copyright (c) 2011-2014, The OpenBLAS Project


  ***********************************
  * Starting time: Fri Apr 17 12:14:31 2026
  * Host name:     vmi3233575
  * Process ID:    336103
  * Working dir.:  /root/orca_b12_vps_pack/jobs/01_xtb/mult_3
  ***********************************

NOTE: MaxCore=500 MB was set to SCF,MP2,MDCI,CIPSI,MRCI,RASCI and CIS
      => If you want to overwrite this, your respective input block should be placed after the MaxCore statement


***************************************
The coordinates will be read from file: ../../../starts/random_d1.50_001.xyz
***************************************


Your calculation utilizes the semiempirical GFN2-xTB method
Please cite in your paper:
Bannwarth, C.; Ehlert S.; Grimme, S. J. Chem. Theory Comput. 2019, 15, 1652.
   

================================================================================

================================================================================
                                        WARNINGS
                       Please study these warnings very carefully!
================================================================================


WARNING: Geometry Optimization
  ===> : Switching off AutoStart
         For restart on a previous wavefunction, please use MOREAD

WARNING: Found dipole moment calculation with XTB calculation
  ===> : Switching off dipole moment calculation

Environment variable XTBEXE for xtb has been set!

================================================================================
                                       INPUT FILE
================================================================================
NAME = random_d1.50_001_m3.inp
|  1> ! GFN2-xTB TightSCF TightOpt
|  2> 
|  3> %pal
|  4>   nprocs 1
|  5> end
|  6> 
|  7> %maxcore 500
|  8> 
|  9> * xyzfile 0 3 ../../../starts/random_d1.50_001.xyz
| 10> 
| 11>                          ****END OF INPUT****
================================================================================

                       *****************************
                       * Geometry Optimization Run *
                       *****************************

Geometry optimization settings:
Update method            Update   .... BFGS
Choice of coordinates    CoordSys .... (2022) Redundant Internals
Initial Hessian          InHess   .... Almloef's Model
Max. no of cycles        MaxIter  .... 50

Convergence Tolerances:
Energy Change            TolE     ....  1.0000e-06 Eh
Max. Gradient            TolMAXG  ....  1.0000e-04 Eh/bohr
RMS Gradient             TolRMSG  ....  3.0000e-05 Eh/bohr
Max. Displacement        TolMAXD  ....  1.0000e-03 bohr
RMS Displacement         TolRMSD  ....  6.0000e-04 bohr
Strict Convergence                .... False

------------------------------------------------------------------------------
                        ORCA OPTIMIZATION COORDINATE SETUP
------------------------------------------------------------------------------

The optimization will be done in redundant internal coordinates (2022)
Making redundant internal coordinates   ...  (2022 redundants) done
Evaluating the initial hessian          ...  (Almloef) done
Evaluating the coordinates              ...  done
Calculating the B-matrix                .... done
Calculating the G-matrix                .... done
The number of degrees of freedom        ....  207

    -----------------------------------------------------------------
                    Redundant Internal Coordinates


    -----------------------------------------------------------------
         Definition                    Initial Value    Approx d2E/dq
    -----------------------------------------------------------------
      1. B(B   4,B   3)                  2.2160         0.040324   
      2. B(B   5,B   1)                  1.5825         0.413256   
      3. B(B   5,B   2)                  1.2822         1.245535   
      4. B(B   5,B   3)                  2.4853         0.014991   
      5. B(B   6,B   2)                  1.5616         0.446345   
      6. B(B   6,B   3)                  2.3718         0.022749   
      7. B(B   6,B   5)                  1.7976         0.187562   
      8. B(B   7,B   4)                  2.0989         0.061986   
      9. B(B   7,B   2)                  1.6362         0.339277   
     10. B(B   7,B   1)                  1.6242         0.354549   
     11. B(B   7,B   5)                  1.2668         1.318154   
     12. B(B   8,B   0)                  2.7577         0.010000   
     13. B(B   8,B   3)                  1.6647         0.305550   
     14. B(B   9,B   3)                  2.6088         0.010000   
     15. B(B   9,B   8)                  2.4796         0.015313   
     16. B(B   9,B   6)                  2.7911         0.010000   
     17. B(B   9,B   0)                  1.8810         0.138052   
     18. B(B  10,B   0)                  2.8783         0.010000   
     19. B(B  10,B   1)                  1.6112         0.371960   
     20. B(B  11,B   0)                  1.5456         0.473272   
     21. B(B  11,B  10)                  2.7183         0.010000   
     22. B(B  11,B   8)                  2.9037         0.010000   
     23. A(B   9,B   0,B  10)          109.2435         0.168606   
     24. A(B   8,B   0,B  11)           79.4412         0.205303   
     25. A(B   8,B   0,B  10)          100.4559         0.127402   
     26. A(B   9,B   0,B  11)          139.8562         0.330091   
     27. A(B  10,B   0,B  11)           68.3372         0.194209   
     28. A(B   8,B   0,B   9)           61.2193         0.177000   
     29. A(B   5,B   1,B  10)          101.4066         0.381604   
     30. A(B   5,B   1,B   7)           46.5138         0.378446   
     31. A(B   7,B   1,B  10)          125.8947         0.371630   
     32. A(B   6,B   2,B   7)          125.4368         0.380615   
     33. A(B   5,B   2,B   6)           77.7261         0.480423   
     34. A(B   5,B   2,B   7)           49.6527         0.456863   
     35. A(B   5,B   3,B   6)           43.3630         0.162383   
     36. A(B   4,B   3,B   6)           86.3941         0.180804   
     37. A(B   4,B   3,B   5)           55.0659         0.172535   
     38. A(B   5,B   3,B   9)           85.4136         0.149259   
     39. A(B   8,B   3,B   9)           66.7486         0.208221   
     40. A(B   6,B   3,B   9)           67.9726         0.155224   
     41. A(B   6,B   3,B   8)          132.2367         0.234187   
     42. A(B   4,B   3,B   9)          139.0717         0.164385   
     43. A(B   5,B   3,B   8)          118.1544         0.221110   
     44. A(B   4,B   3,B   8)          119.7096         0.254272   
     45. A(B   3,B   4,B   7)          103.0501         0.204185   
     46. A(B   6,B   5,B   7)          135.3973         0.414833   
     47. A(B   1,B   5,B   6)          156.0272         0.339598   
     48. A(B   2,B   5,B   7)           79.8661         0.589140   
     49. A(B   1,B   5,B   7)           68.4766         0.478624   
     50. A(B   1,B   5,B   2)          141.9133         0.473658   
     51. A(B   3,B   5,B   6)           64.9542         0.207295   
     52. A(B   2,B   5,B   3)          110.2281         0.270578   
     53. A(B   1,B   5,B   3)          105.2628         0.230454   
     54. A(B   2,B   5,B   6)           58.0871         0.410680   
     55. A(B   3,B   5,B   7)          125.2606         0.272922   
     56. A(B   5,B   6,B   9)           95.2868         0.180742   
     57. A(B   2,B   6,B   9)          137.7344         0.200632   
     58. A(B   2,B   6,B   5)           44.1868         0.344005   
     59. A(B   3,B   6,B   5)           71.6828         0.219005   
     60. A(B   2,B   6,B   3)          105.3483         0.247191   
     61. A(B   3,B   6,B   9)           60.0508         0.145911   
     62. A(B   1,B   7,B   5)           65.0097         0.465343   
     63. A(B   2,B   7,B   4)           94.4328         0.275532   
     64. A(B   1,B   7,B   4)           88.0657         0.277401   
     65. A(B   1,B   7,B   2)          112.4208         0.365808   
     66. A(B   4,B   7,B   5)           76.6225         0.342606   
     67. A(B   2,B   7,B   5)           50.4811         0.461611   
     68. A(B   3,B   8,B  11)          110.3256         0.182292   
     69. A(B   0,B   8,B   9)           41.6735         0.142497   
     70. A(B   0,B   8,B   3)           98.4179         0.194336   
     71. A(B   3,B   8,B   9)           75.1651         0.221746   
     72. A(B   0,B   8,B  11)           31.5517         0.126597   
     73. A(B   9,B   8,B  11)           73.0082         0.136380   
     74. A(B   3,B   9,B   6)           51.9766         0.135733   
     75. A(B   6,B   9,B   8)           89.0344         0.141035   
     76. A(B   0,B   9,B   6)          108.7013         0.174594   
     77. A(B   3,B   9,B   8)           38.0863         0.149549   
     78. A(B   0,B   9,B   3)           98.0626         0.188600   
     79. A(B   0,B   9,B   8)           77.1071         0.199898   
     80. A(B   0,B  10,B  11)           31.9003         0.128683   
     81. A(B   0,B  10,B   1)           98.5741         0.188627   
     82. A(B   1,B  10,B  11)           90.0267         0.202803   
     83. A(B   0,B  11,B   8)           69.0071         0.192004   
     84. A(B   8,B  11,B  10)          100.7689         0.127851   
     85. A(B   0,B  11,B  10)           79.7625         0.209180   
     86. D(B   7,B   4,B   3,B   6)    -32.5340         0.010000   
     87. D(B   7,B   4,B   3,B   8)    105.1552         0.010000   
     88. D(B   7,B   4,B   3,B   5)     -0.1581         0.010000   
     89. D(B   7,B   4,B   3,B   9)     17.2020         0.010000   
     90. D(B   7,B   5,B   1,B  10)   -129.2718         0.010000   
     91. D(B   2,B   5,B   3,B   9)     99.8521         0.010000   
     92. D(B   6,B   5,B   2,B   7)    164.4449         0.094807   
     93. D(B   2,B   5,B   3,B   8)    160.3726         0.010000   
     94. D(B   2,B   5,B   1,B   7)     35.9204         0.010000   
     95. D(B   6,B   5,B   1,B  10)     46.1398         0.010000   
     96. D(B   2,B   5,B   1,B  10)    -93.3514         0.010000   
     97. D(B   1,B   5,B   3,B   6)   -156.6271         0.010000   
     98. D(B   3,B   5,B   1,B   7)   -122.3875         0.010000   
     99. D(B   1,B   5,B   2,B   6)    161.8857         0.094807   
    100. D(B   1,B   5,B   3,B   8)    -33.6903         0.010000   
    101. D(B   1,B   5,B   2,B   7)    -33.6694         0.094807   
    102. D(B   7,B   5,B   2,B   6)   -164.4449         0.094807   
    103. D(B   1,B   5,B   3,B   9)    -94.2108         0.010000   
    104. D(B   2,B   5,B   3,B   4)    -91.4568         0.010000   
    105. D(B   1,B   5,B   3,B   4)     74.4803         0.010000   
    106. D(B   3,B   5,B   2,B   6)    -40.4492         0.094807   
    107. D(B   2,B   5,B   3,B   6)     37.4358         0.010000   
    108. D(B   3,B   5,B   2,B   7)    123.9957         0.094807   
    109. D(B   6,B   5,B   1,B   7)    175.4116         0.010000   
    110. D(B   3,B   6,B   2,B   7)     26.8859         0.010231   
    111. D(B   3,B   6,B   2,B   5)     41.4135         0.010231   
    112. D(B   9,B   6,B   2,B   7)    -35.2276         0.010231   
    113. D(B   9,B   6,B   2,B   5)    -20.7000         0.010231   
    114. D(B   2,B   6,B   3,B   9)   -136.6794         0.010000   
    115. D(B   5,B   6,B   2,B   7)    -14.5276         0.010231   
    116. D(B   3,B   6,B   5,B   2)   -137.7828         0.010000   
    117. D(B   3,B   6,B   5,B   1)     70.3834         0.010000   
    118. D(B   2,B   6,B   5,B   7)     22.0826         0.010000   
    119. D(B   5,B   6,B   3,B   4)     39.7430         0.010000   
    120. D(B   5,B   6,B   3,B   9)   -107.6234         0.010000   
    121. D(B   5,B   6,B   3,B   8)    -88.1007         0.010000   
    122. D(B   2,B   6,B   3,B   5)    -29.0561         0.010000   
    123. D(B   2,B   6,B   5,B   3)    137.7828         0.010000   
    124. D(B   2,B   6,B   3,B   4)     10.6869         0.010000   
    125. D(B   2,B   6,B   5,B   1)   -151.8337         0.010000   
    126. D(B   3,B   6,B   5,B   7)   -115.7002         0.010000   
    127. D(B   9,B   6,B   5,B   1)     14.3534         0.010000   
    128. D(B   2,B   6,B   3,B   8)   -117.1567         0.010000   
    129. D(B   2,B   7,B   5,B   3)   -107.6853         0.115309   
    130. D(B   2,B   7,B   5,B   1)    158.4312         0.115309   
    131. D(B   1,B   7,B   5,B   6)   -177.3469         0.115309   
    132. D(B   1,B   7,B   5,B   2)   -158.4312         0.115309   
    133. D(B   5,B   7,B   4,B   3)      0.2614         0.010000   
    134. D(B   2,B   7,B   5,B   6)    -18.9158         0.115309   
    135. D(B   1,B   7,B   4,B   3)    -64.4953         0.010000   
    136. D(B   5,B   7,B   2,B   6)     18.7605         0.010000   
    137. D(B   4,B   7,B   2,B   6)    -49.8460         0.010000   
    138. D(B   4,B   7,B   2,B   5)    -68.6065         0.010000   
    139. D(B   2,B   7,B   4,B   3)     47.8478         0.010000   
    140. D(B   1,B   7,B   2,B   5)     21.1278         0.010000   
    141. D(B   5,B   7,B   1,B  10)     69.5134         0.010000   
    142. D(B   4,B   7,B   1,B   5)     76.1330         0.010000   
    143. D(B   1,B   7,B   5,B   3)     93.8835         0.115309   
    144. D(B   2,B   7,B   1,B   5)    -17.8651         0.010000   
    145. D(B   2,B   7,B   1,B  10)     51.6483         0.010000   
    146. D(B   4,B   7,B   1,B  10)    145.6465         0.010000   
    147. D(B   4,B   7,B   5,B   1)    -94.1616         0.115309   
    148. D(B   1,B   7,B   2,B   6)     39.8883         0.010000   
    149. D(B   0,B   8,B   3,B   5)    -35.9291         0.010000   
    150. D(B   0,B   8,B   3,B   4)    -99.6718         0.010000   
    151. D(B   0,B   8,B   3,B   9)     34.8838         0.010000   
    152. D(B   9,B   8,B   3,B   5)    -70.8129         0.010000   
    153. D(B   9,B   8,B   3,B   6)    -19.7046         0.010000   
    154. D(B   9,B   8,B   3,B   4)   -134.5556         0.010000   
    155. D(B  11,B   8,B   0,B   9)   -171.7232         0.010000   
    156. D(B   9,B   8,B   0,B  10)    106.3207         0.010000   
    157. D(B   9,B   8,B   0,B  11)    171.7232         0.010000   
    158. D(B   3,B   8,B   0,B  10)     50.0677         0.010000   
    159. D(B   0,B   8,B   3,B   6)     15.1792         0.010000   
    160. D(B   3,B   8,B   0,B  11)    115.4702         0.010000   
    161. D(B   3,B   8,B   0,B   9)    -56.2529         0.010000   
    162. D(B   6,B   9,B   8,B   0)   -109.4407         0.010000   
    163. D(B   6,B   9,B   8,B   3)     12.2493         0.010000   
    164. D(B   3,B   9,B   8,B  11)   -117.1724         0.010000   
    165. D(B   3,B   9,B   8,B   0)   -121.6900         0.010000   
    166. D(B   0,B   9,B   8,B  11)      4.5176         0.010000   
    167. D(B   0,B   9,B   8,B   3)    121.6900         0.010000   
    168. D(B   8,B   9,B   6,B   5)     55.7552         0.010000   
    169. D(B   8,B   9,B   6,B   2)     70.0804         0.010000   
    170. D(B   0,B   9,B   6,B   3)    -85.5996         0.010000   
    171. D(B   0,B   9,B   6,B   5)    -20.2812         0.010000   
    172. D(B   0,B   9,B   6,B   2)     -5.9561         0.010000   
    173. D(B   8,B   9,B   3,B   5)    123.3448         0.010000   
    174. D(B   8,B   9,B   3,B   6)    164.3780         0.010000   
    175. D(B   8,B   9,B   3,B   4)    109.1394         0.010000   
    176. D(B   0,B   9,B   3,B   5)     66.4435         0.010000   
    177. D(B   0,B   9,B   3,B   6)    107.4767         0.010000   
    178. D(B   0,B   9,B   3,B   4)     52.2381         0.010000   
    179. D(B   8,B   9,B   6,B   3)     -9.5631         0.010000   
    180. D(B   0,B   9,B   3,B   8)    -56.9013         0.010000   
    181. D(B   6,B   9,B   0,B  11)     71.8263         0.010000   
    182. D(B   3,B   9,B   0,B  10)    -59.5653         0.010000   
    183. D(B   3,B   9,B   0,B   8)     32.0134         0.010000   
    184. D(B   3,B   9,B   0,B  11)     19.3333         0.010000   
    185. D(B   8,B   9,B   0,B  10)    -91.5787         0.010000   
    186. D(B   8,B   9,B   0,B  11)    -12.6801         0.010000   
    187. D(B   0,B  10,B   1,B   7)   -114.1926         0.010000   
    188. D(B   0,B  10,B   1,B   5)    -70.2970         0.010000   
    189. D(B  11,B  10,B   1,B   7)   -145.0447         0.010000   
    190. D(B  11,B  10,B   1,B   5)   -101.1490         0.010000   
    191. D(B  11,B  10,B   0,B   8)     74.1095         0.010000   
    192. D(B  11,B  10,B   0,B   9)    137.1000         0.010000   
    193. D(B   1,B  10,B   0,B   8)     -1.9251         0.010000   
    194. D(B   1,B  10,B   0,B  11)    -76.0346         0.010000   
    195. D(B   1,B  10,B   0,B   9)     61.0653         0.010000   
    196. D(B   8,B  11,B  10,B   0)    -66.1136         0.010000   
    197. D(B   8,B  11,B  10,B   1)     40.2291         0.010000   
    198. D(B   0,B  11,B  10,B   1)    106.3427         0.010000   
    199. D(B  10,B  11,B   8,B   0)     74.5285         0.010000   
    200. D(B  10,B  11,B   8,B   9)     68.7845         0.010000   
    201. D(B  10,B  11,B   8,B   3)      2.2808         0.010000   
    202. D(B   0,B  11,B   8,B   9)     -5.7440         0.010000   
    203. D(B   0,B  11,B   8,B   3)    -72.2477         0.010000   
    204. D(B  10,B  11,B   0,B   8)   -105.8233         0.011413   
    205. D(B  10,B  11,B   0,B   9)    -94.5373         0.011413   
    206. D(B   8,B  11,B   0,B  10)    105.8233         0.011413   
    207. D(B   8,B  11,B   0,B   9)     11.2859         0.011413   
    -----------------------------------------------------------------

Number of atoms                         .... 12
Number of degrees of freedom            .... 207


         *************************************************************
         *                GEOMETRY OPTIMIZATION CYCLE   1            *
         *************************************************************
---------------------------------
CARTESIAN COORDINATES (ANGSTROEM)
---------------------------------
  B    -1.989643    1.285467    0.948035
  B    -0.155777   -1.655907    0.449662
  B     0.717451   -0.972990   -2.022919
  B     1.338687    1.247053    0.147348
  B     2.284816   -0.754772    0.237479
  B     0.361457   -0.832875   -0.799121
  B     0.431858    0.559628   -1.933662
  B     0.894079   -1.981024   -0.746256
  B     0.640357    1.891838    1.514047
  B    -1.006842    2.300503   -0.293697
  B    -1.752127   -1.506642    0.290646
  B    -1.764317    0.419722    2.208438

----------------------------
CARTESIAN COORDINATES (A.U.)
----------------------------
  NO LB    ZA    FRAG    MASS        X           Y           Z
   0 B   5.0000    0    10.810   -3.759880    2.429182    1.791526
   1 B   5.0000    0    10.810   -0.294377   -3.129210    0.849738
   2 B   5.0000    0    10.810    1.355785   -1.838686   -3.822763
   3 B   5.0000    0    10.810    2.529752    2.356588    0.278447
   4 B   5.0000    0    10.810    4.317677   -1.426313    0.448771
   5 B   5.0000    0    10.810    0.683056   -1.573906   -1.510120
   6 B   5.0000    0    10.810    0.816093    1.057544   -3.654092
   7 B   5.0000    0    10.810    1.689564   -3.743593   -1.410220
   8 B   5.0000    0    10.810    1.210100    3.575055    2.861134
   9 B   5.0000    0    10.810   -1.902656    4.347320   -0.555006
  10 B   5.0000    0    10.810   -3.311040   -2.847140    0.549241
  11 B   5.0000    0    10.810   -3.334075    0.793159    4.173343

      -----------------------------------------------------------      
     |                   =====================                   |     
     |                           x T B                           |     
     |                   =====================                   |     
     |                         S. Grimme                         |     
     |          Mulliken Center for Theoretical Chemistry        |     
     |                    University of Bonn                     |     
      -----------------------------------------------------------      

   * xtb version 6.6.1 (unknown) compiled by 'builduser@buildhost' on 2023-08-07

   xtb is free software: you can redistribute it and/or modify it under
   the terms of the GNU Lesser General Public License as published by
   the Free Software Foundation, either version 3 of the License, or
   (at your option) any later version.
   
   xtb is distributed in the hope that it will be useful,
   but WITHOUT ANY WARRANTY; without even the implied warranty of
   MERCHANTABILITY or FITNESS FOR A PARTICULAR PURPOSE.  See the
   GNU Lesser General Public License for more details.
   
   Cite this work as:
   * C. Bannwarth, E. Caldeweyher, S. Ehlert, A. Hansen, P. Pracht,
     J. Seibert, S. Spicher, S. Grimme, WIREs Comput. Mol. Sci., 2020, 11,
     e01493. DOI: 10.1002/wcms.1493
   
   for GFN2-xTB:
   * C. Bannwarth, S. Ehlert and S. Grimme., J. Chem. Theory Comput., 2019,
     15, 1652-1671. DOI: 10.1021/acs.jctc.8b01176
   for GFN1-xTB:
   * S. Grimme, C. Bannwarth, P. Shushkov, J. Chem. Theory Comput., 2017,
     13, 1989-2009. DOI: 10.1021/acs.jctc.7b00118
   for GFN0-xTB:
   * P. Pracht, E. Caldeweyher, S. Ehlert, S. Grimme, ChemRxiv, 2019, preprint.
     DOI: 10.26434/chemrxiv.8326202.v1
   for GFN-FF:
   * S. Spicher and S. Grimme, Angew. Chem. Int. Ed., 2020, 59, 15665-15673.
     DOI: 10.1002/anie.202004239
   
   for ALPB and GBSA implicit solvation:
   * S. Ehlert, M. Stahn, S. Spicher, S. Grimme, J. Chem. Theory Comput.,
     2021, 17, 4250-4261. DOI: 10.1021/acs.jctc.1c00471
   
   for DFT-D4:
   * E. Caldeweyher, C. Bannwarth and S. Grimme, J. Chem. Phys., 2017,
     147, 034112. DOI: 10.1063/1.4993215
   * E. Caldeweyher, S. Ehlert, A. Hansen, H. Neugebauer, S. Spicher,
     C. Bannwarth and S. Grimme, J. Chem. Phys., 2019, 150, 154122.
     DOI: 10.1063/1.5090222
   * E. Caldeweyher, J.-M. Mewes, S. Ehlert and S. Grimme, Phys. Chem. Chem. Phys.
     2020, 22, 8499-8512. DOI: 10.1039/D0CP00502A
   
   for sTDA-xTB:
   * S. Grimme and C. Bannwarth, J. Chem. Phys., 2016, 145, 054103.
     DOI: 10.1063/1.4959605
   
   in the mass-spec context:
   * V. Asgeirsson, C. Bauer and S. Grimme, Chem. Sci., 2017, 8, 4879.
     DOI: 10.1039/c7sc00601b
   * J. Koopman and S. Grimme, ACS Omega 2019, 4, 12, 15120-15133.
     DOI: 10.1021/acsomega.9b02011
   
   for metadynamics refer to:
   * S. Grimme, J. Chem. Theory Comput., 2019, 155, 2847-2862
     DOI: 10.1021/acs.jctc.9b00143
   
   for SPH calculations refer to:
   * S. Spicher and S. Grimme, J. Chem. Theory Comput., 2021, 17, 1701-1714
     DOI: 10.1021/acs.jctc.0c01306
   
   with help from (in alphabetical order)
   P. Atkinson, C. Bannwarth, F. Bohle, G. Brandenburg, E. Caldeweyher
   M. Checinski, S. Dohm, S. Ehlert, S. Ehrlich, I. Gerasimov, C. Hölzer
   A. Katbashev, J. Koopman, C. Lavigne, S. Lehtola, F. März, M. Müller,
   F. Musil, H. Neugebauer, J. Pisarek, C. Plett, P. Pracht, F. Pultar,
   J. Seibert, P. Shushkov, S. Spicher, M. Stahn, M. Steiner, T. Strunk,
   J. Stückrath, T. Rose, and J. Unsleber
   
 * started run on 2026/04/17 at 12:14:31.327     

           -------------------------------------------------
          |                Calculation Setup                |
           -------------------------------------------------

          program call               : /usr/bin/xtb random_d1.50_001_m3_XTB.xyz --grad -c 0 -u 2 -P 1 --namespace random_d1.50_001_m3 --input random_d1.50_001_m3_XTB.input.tmp --acc 0.200000
          calculation namespace      : random_d1.50_001_m3
          coordinate file            : random_d1.50_001_m3_XTB.xyz
          omp threads                :                     1

   ID    Z sym.   atoms
    1    5 B      1-12

molecular fragmentation (1/2 indicates fragments):
122222222121
# atoms in fragment 1/2:     3     9
 fragment masses (1/2) :       32.43       97.30
CMA distance (Bohr)    :   5.752
constraining FC (au)   :  0.0500

           -------------------------------------------------
          |                 G F N 2 - x T B                 |
           -------------------------------------------------

        Reference                      10.1021/acs.jctc.8b01176
      * Hamiltonian:
        H0-scaling (s, p, d)           1.850000    2.230000    2.230000
        zeta-weighting                 0.500000
      * Dispersion:
        s8                             2.700000
        a1                             0.520000
        a2                             5.000000
        s9                             5.000000
      * Repulsion:
        kExp                           1.500000    1.000000
        rExp                           1.000000
      * Coulomb:
        alpha                          2.000000
        third order                    shell-resolved
        anisotropic                    true
        a3                             3.000000
        a5                             4.000000
        cn-shift                       1.200000
        cn-exp                         4.000000
        max-rad                        5.000000


          ...................................................
          :                      SETUP                      :
          :.................................................:
          :  # basis functions                  48          :
          :  # atomic orbitals                  48          :
          :  # shells                           24          :
          :  # electrons                        36          :
          :  max. iterations                   250          :
          :  Hamiltonian                  GFN2-xTB          :
          :  restarted?                      false          :
          :  GBSA solvation                  false          :
          :  PC potential                    false          :
          :  electronic temp.          300.0000000     K    :
          :  accuracy                    0.2000000          :
          :  -> integral cutoff          0.3198970E+02      :
          :  -> integral neglect         0.2000000E-08      :
          :  -> SCF convergence          0.2000000E-06 Eh   :
          :  -> wf. convergence          0.2000000E-04 e    :
          :  Broyden damping             0.4000000          :
          ...................................................

 iter      E             dE          RMSdq      gap      omega  full diag
   1    -13.2441775 -0.132442E+02  0.198E+01    0.27       0.0  T
   2     -1.2538680  0.119903E+02  0.204E+01    0.04       1.0  T
   3     31.4140129  0.326679E+02  0.301E+01    1.20       1.0  T
   4     -6.4618847 -0.378759E+02  0.161E+01    0.08       1.0  T
   5     -8.3978674 -0.193598E+01  0.157E+01    0.14       1.0  T
   6     -8.8752327 -0.477365E+00  0.133E+01    0.15       1.0  T
   7    -13.3696814 -0.449445E+01  0.743E+00    0.23       1.0  T
   8    -12.3315097  0.103817E+01  0.942E+00    0.11       1.0  T
   9    -13.5148730 -0.118336E+01  0.619E+00    0.36       1.0  T
  10    -13.5607014 -0.458284E-01  0.585E+00    0.37       1.0  T
  11    -13.5773302 -0.166288E-01  0.578E+00    0.36       1.0  T
  12    -13.5786568 -0.132658E-02  0.578E+00    0.36       1.0  T
  13    -13.5808925 -0.223565E-02  0.550E+00    0.27       1.0  T
  14    -13.6223061 -0.414136E-01  0.507E+00    0.31       1.0  T
  15    -13.6705907 -0.482846E-01  0.290E+00    0.25       1.0  T
  16    -13.6664572  0.413347E-02  0.255E+00    0.20       1.0  T
  17    -13.6893363 -0.228790E-01  0.225E+00    0.22       1.0  T
  18    -13.7003585 -0.110223E-01  0.167E+00    0.23       1.0  T
  19    -13.7102890 -0.993046E-02  0.136E+00    0.24       1.0  T
  20    -13.7074192  0.286984E-02  0.133E+00    0.25       1.0  T
  21    -13.7092638 -0.184467E-02  0.120E+00    0.28       1.0  T
  22    -13.7241535 -0.148896E-01  0.623E-01    0.26       1.0  T
  23    -13.7270461 -0.289257E-02  0.387E-01    0.28       1.0  T
  24    -13.7266135  0.432583E-03  0.420E-01    0.28       1.0  T
  25    -13.7276808 -0.106737E-02  0.259E-01    0.29       1.0  T
  26    -13.7282698 -0.588940E-03  0.133E-01    0.28       1.0  T
  27    -13.7281636  0.106149E-03  0.130E-01    0.28       1.0  T
  28    -13.7283113 -0.147627E-03  0.753E-02    0.28       1.0  T
  29    -13.7283617 -0.504021E-04  0.451E-02    0.28       1.0  T
  30    -13.7283731 -0.114533E-04  0.333E-02    0.28       1.0  T
  31    -13.7283718  0.129766E-05  0.310E-02    0.28       1.0  T
  32    -13.7283820 -0.101731E-04  0.905E-03    0.28       3.2  T
  33    -13.7283817  0.338679E-06  0.862E-03    0.28       3.3  T
  34    -13.7283820 -0.391375E-06  0.597E-03    0.28       4.8  T
  35    -13.7283823 -0.247938E-06  0.384E-03    0.28       7.5  T
  36    -13.7283824 -0.148562E-06  0.164E-03    0.28      17.6  T
  37    -13.7283825 -0.239987E-07  0.844E-04    0.28      34.2  T
  38    -13.7283825 -0.509329E-08  0.551E-04    0.28      52.4  T
  39    -13.7283825 -0.116297E-08  0.352E-04    0.28      82.0  T
  40    -13.7283825 -0.501057E-09  0.206E-04    0.28     140.1  T
  41    -13.7283825 -0.264096E-09  0.592E-05    0.28     487.9  T
  42    -13.7283825 -0.532339E-10  0.235E-05    0.28    1226.5  T

   *** convergence criteria satisfied after 42 iterations ***

         #    Occupation            Energy/Eh            Energy/eV
      -------------------------------------------------------------
         1        2.0000           -0.4473464             -12.1729
       ...           ...                  ...                  ...
        13        2.0000           -0.2629112              -7.1542
        14        2.0000           -0.2600749              -7.0770
        15        2.0000           -0.2502209              -6.8089
        16        1.9999           -0.2405582              -6.5459
        17        1.5435           -0.2318269              -6.3083
        18        1.4545           -0.2314877              -6.2991
        19        0.9975           -0.2257586              -6.1432 (HOMO)
        20        0.0044           -0.2154802              -5.8635 (LUMO)
        21        0.0001           -0.2116371              -5.7589
        22        0.0000           -0.2059418              -5.6040
        23                         -0.2020292              -5.4975
        24                         -0.1910823              -5.1996
       ...                                ...                  ...
        48                          3.4039681              92.6267
      -------------------------------------------------------------
                  HL-Gap            0.0102785 Eh            0.2797 eV
             Fermi-level           -0.2261434 Eh           -6.1537 eV

 transition dipole moment (au) for excitation:          18          19
     X       Y       Z   
  -1.5831  -1.5185  -0.2959  total (au/Debye):    2.213   5.626
 dE (eV)             :    0.156
 oscillator strength :  0.26464E-01

 SCC (total)                   0 d,  0 h,  0 min,  0.065 sec
 SCC setup                      ...        0 min,  0.000 sec (  0.218%)
 Dispersion                     ...        0 min,  0.000 sec (  0.153%)
 classical contributions        ...        0 min,  0.000 sec (  0.053%)
 integral evaluation            ...        0 min,  0.003 sec (  5.070%)
 iterations                     ...        0 min,  0.049 sec ( 75.643%)
 molecular gradient             ...        0 min,  0.007 sec ( 11.506%)
 printout                       ...        0 min,  0.005 sec (  7.316%)

         :::::::::::::::::::::::::::::::::::::::::::::::::::::
         ::                     SUMMARY                     ::
         :::::::::::::::::::::::::::::::::::::::::::::::::::::
         :: total energy             -13.381762790279 Eh    ::
         :: gradient norm              0.922764006164 Eh/a0 ::
         :: HOMO-LUMO gap              0.279691086759 eV    ::
         ::.................................................::
         :: SCC energy               -13.728382471806 Eh    ::
         :: -> isotropic ES            0.072672761005 Eh    ::
         :: -> anisotropic ES          0.001366294424 Eh    ::
         :: -> anisotropic XC         -0.026985723436 Eh    ::
         :: -> dispersion             -0.018715589414 Eh    ::
         :: repulsion energy           0.346571225901 Eh    ::
         :: add. restraining           0.000000000000 Eh    ::
         :: total charge              -0.000000000918 e     ::
         :::::::::::::::::::::::::::::::::::::::::::::::::::::


Property printout bound to 'properties.out'

           -------------------------------------------------
          | TOTAL ENERGY              -13.381762790279 Eh   |
          | GRADIENT NORM               0.922764006164 Eh/α |
          | HOMO-LUMO GAP               0.279691086759 eV   |
           -------------------------------------------------

------------------------------------------------------------------------
 * finished run on 2026/04/17 at 12:14:31.406     
------------------------------------------------------------------------
 total:
 * wall-time:     0 d,  0 h,  0 min,  0.079 sec
 *  cpu-time:     0 d,  0 h,  0 min,  0.079 sec
 * ratio c/w:     0.999 speedup
 SCF:
 * wall-time:     0 d,  0 h,  0 min,  0.065 sec
 *  cpu-time:     0 d,  0 h,  0 min,  0.065 sec
 * ratio c/w:     1.000 speedup


-------------------------   --------------------
FINAL SINGLE POINT ENERGY       -13.381762790280
-------------------------   --------------------


-------------
DIPOLE MOMENT
-------------
                                X             Y             Z
Total Dipole Moment    :     -0.41500       0.01500       0.15000
                        -----------------------------------------
Magnitude (a.u.)       :      0.44153
Magnitude (Debye)      :      1.12228


------------------
CARTESIAN GRADIENT
------------------

   1   B   :   -0.057211542   -0.009333592    0.001285694
   2   B   :    0.068980935    0.026629744    0.005125265
   3   B   :   -0.108851451   -0.002912658    0.386722648
   4   B   :    0.021881332    0.022439797   -0.047785380
   5   B   :    0.053607960   -0.030224305    0.030105369
   6   B   :    0.308683258   -0.478448796   -0.330630434
   7   B   :   -0.006114818    0.012643894   -0.037932608
   8   B   :   -0.225175433    0.396516984   -0.063503526
   9   B   :    0.009790065    0.036781883    0.079449385
  10   B   :   -0.003066784    0.072718245   -0.048096168
  11   B   :   -0.060863202   -0.023383985   -0.040566976
  12   B   :   -0.001660319   -0.023427210    0.065826730

Difference to translation invariance:
           :    0.0000000000   -0.0000000000   -0.0000000000

Difference to rotation invariance:
           :   -0.0000000124   -0.0000000077    0.0000000161

Norm of the Cartesian gradient     ...    0.9227640062
RMS gradient                       ...    0.1537940010
MAX gradient                       ...    0.4784487956
------------------------------------------------------------------------------
                         ORCA GEOMETRY RELAXATION STEP
------------------------------------------------------------------------------

Reading the OPT-File                    .... done
Getting information on internals        .... done
Copying old internal coords+grads       .... done
Making the new internal coordinates     .... (2022 redundants) done
Validating the new internal coordinates .... (2022 redundants) done
Calculating the B-matrix                .... done
Calculating the G,G- and P matrices     .... done
Transforming gradient to internals      .... done
Projecting the internal gradient        .... done
Number of atoms                         ....  12
Number of internal coordinates          .... 207
Current Energy                          ....   -13.381762790 Eh
Current gradient norm                   ....     0.922764006 Eh/bohr
Maximum allowed component of the step   ....  0.300
Current trust radius                    ....  0.300
Evaluating the initial hessian          ....  (Almloef) done
Projecting the Hessian                  .... done
Forming the augmented Hessian           .... done
Diagonalizing the augmented Hessian     .... done
Last element of RFO vector              ....  0.858143207
Lowest eigenvalues of augmented Hessian:
 -0.225972963  0.015158417  0.017712277  0.020581115  0.023310342
Length of the computed step             ....  0.598280558
Warning: the length of the step is outside the trust region - taking restricted step instead
The input lambda is                     ....     0.013429
   iter:   5  x=    0.003721  g=10706.468870 f(x)=    45.266257
   iter:  10  x=   -0.134240  g=   16.184194 f(x)=     1.042657
   iter:  15  x=   -0.815107  g=    0.148809 f(x)=     0.004894
The output lambda is                    ....    -0.816520 (19 iterations)
The final length of the internal step   ....  0.300000000
Converting the step to Cartesian space:
 Initial RMS(Int)=    0.0208514414
Transforming coordinates:
 Iter   0:  RMS(Cart)=    0.0275604987 RMS(Int)=    0.0208202140
done
Storing new coordinates                 .... done

                                .--------------------.
          ----------------------|Geometry convergence|-------------------------
          Item                value                   Tolerance       Converged
          ---------------------------------------------------------------------
          RMS gradient        0.0292120241            0.0000300000      NO
          MAX gradient        0.1863235348            0.0001000000      NO
          RMS step            0.0208514414            0.0006000000      NO
          MAX step            0.1234741126            0.0010000000      NO
          -------------------------------------------------------------------------
          ........................................................
          Max(Bonds)      0.0653      Max(Angles)    2.30
          Max(Dihed)        1.64      Max(Improp)    0.00
          ---------------------------------------------------------------------

The optimization has not yet converged - more geometry cycles are needed


    ---------------------------------------------------------------------------
                         Redundant Internal Coordinates
                            (Angstroem and degrees)

        Definition                    Value    dE/dq     Step     New-Value
    ----------------------------------------------------------------------------
     1. B(B   4,B   3)                2.2160  0.012665 -0.0153    2.2007   
     2. B(B   5,B   1)                1.5825 -0.020301  0.0070    1.5896   
     3. B(B   5,B   2)                1.2822 -0.179476  0.0615    1.3437   
     4. B(B   5,B   3)                2.4853  0.045089 -0.0219    2.4635   
     5. B(B   6,B   2)                1.5616 -0.029186  0.0054    1.5669   
     6. B(B   6,B   3)                2.3718 -0.006828 -0.0020    2.3699   
     7. B(B   6,B   5)                1.7976 -0.004564 -0.0017    1.7958   
     8. B(B   7,B   4)                2.0989  0.018113 -0.0138    2.0851   
     9. B(B   7,B   2)                1.6362 -0.186324  0.0653    1.7016   
    10. B(B   7,B   1)                1.6242 -0.081615  0.0265    1.6507   
    11. B(B   7,B   5)                1.2668 -0.185960  0.0651    1.3319   
    12. B(B   8,B   0)                2.7577  0.024514 -0.0145    2.7432   
    13. B(B   8,B   3)                1.6647  0.059323 -0.0302    1.6346   
    14. B(B   9,B   3)                2.6088  0.034669 -0.0177    2.5911   
    15. B(B   9,B   8)                2.4796  0.028244 -0.0162    2.4634   
    16. B(B   9,B   6)                2.7911  0.020123 -0.0138    2.7773   
    17. B(B   9,B   0)                1.8810  0.051832 -0.0293    1.8517   
    18. B(B  10,B   0)                2.8783  0.006317 -0.0053    2.8729   
    19. B(B  10,B   1)                1.6112  0.049795 -0.0241    1.5871   
    20. B(B  11,B   0)                1.5456  0.033523 -0.0157    1.5299   
    21. B(B  11,B  10)                2.7183  0.030568 -0.0168    2.7014   
    22. B(B  11,B   8)                2.9037  0.024350 -0.0143    2.8894   
    23. A(B   9,B   0,B  10)          109.24 -0.004759    0.27    109.51   
    24. A(B   8,B   0,B  11)           79.44 -0.003135    0.14     79.59   
    25. A(B   8,B   0,B  10)          100.46  0.006125   -0.29    100.17   
    26. A(B   9,B   0,B  11)          139.86 -0.004346    0.22    140.07   
    27. A(B  10,B   0,B  11)           68.34  0.006696   -0.36     67.98   
    28. A(B   8,B   0,B   9)           61.22 -0.000471    0.04     61.26   
    29. A(B   5,B   1,B  10)          101.41  0.021210   -0.78    100.63   
    30. A(B   5,B   1,B   7)           46.51 -0.051773    2.00     48.51   
    31. A(B   7,B   1,B  10)          125.89 -0.006075    0.32    126.22   
    32. A(B   6,B   2,B   7)          125.44  0.041115   -1.51    123.93   
    33. A(B   5,B   2,B   6)           77.73  0.054085   -2.00     75.72   
    34. A(B   5,B   2,B   7)           49.65 -0.015017    0.58     50.23   
    35. A(B   5,B   3,B   6)           43.36 -0.005054    0.21     43.57   
    36. A(B   4,B   3,B   6)           86.39  0.002660   -0.17     86.23   
    37. A(B   4,B   3,B   5)           55.07 -0.002050    0.02     55.09   
    38. A(B   5,B   3,B   9)           85.41  0.011039   -0.54     84.87   
    39. A(B   8,B   3,B   9)           66.75 -0.004680    0.20     66.94   
    40. A(B   6,B   3,B   9)           67.97  0.000560   -0.05     67.92   
    41. A(B   6,B   3,B   8)          132.24 -0.006760    0.29    132.53   
    42. A(B   4,B   3,B   9)          139.07  0.007608   -0.47    138.60   
    43. A(B   5,B   3,B   8)          118.15  0.005637   -0.20    117.95   
    44. A(B   4,B   3,B   8)          119.71 -0.000199    0.05    119.76   
    45. A(B   3,B   4,B   7)          103.05 -0.043810    1.97    105.02   
    46. A(B   6,B   5,B   7)          135.40  0.033363   -1.31    134.09   
    47. A(B   1,B   5,B   6)          156.03 -0.038105    1.59    157.62   
    48. A(B   2,B   5,B   7)           79.87  0.026104   -0.93     78.93   
    49. A(B   1,B   5,B   7)           68.48  0.005031   -0.29     68.18   
    50. A(B   1,B   5,B   2)          141.91  0.027660   -1.07    140.84   
    51. A(B   3,B   5,B   6)           64.95 -0.011838    0.49     65.44   
    52. A(B   2,B   5,B   3)          110.23 -0.002818    0.00    110.23   
    53. A(B   1,B   5,B   3)          105.26 -0.013538    0.59    105.85   
    54. A(B   2,B   5,B   6)           58.09  0.005170   -0.30     57.79   
    55. A(B   3,B   5,B   7)          125.26  0.013044   -0.60    124.66   
    56. A(B   5,B   6,B   9)           95.29  0.028696   -1.25     94.03   
    57. A(B   2,B   6,B   9)          137.73 -0.028567    0.98    138.72   
    58. A(B   2,B   6,B   5)           44.19 -0.059255    2.30     46.49   
    59. A(B   3,B   6,B   5)           71.68  0.016892   -0.69     70.99   
    60. A(B   2,B   6,B   3)          105.35 -0.027456    0.99    106.33   
    61. A(B   3,B   6,B   9)           60.05  0.005977   -0.22     59.83   
    62. A(B   1,B   7,B   5)           65.01  0.046742   -1.70     63.30   
    63. A(B   2,B   7,B   4)           94.43  0.018954   -0.94     93.50   
    64. A(B   1,B   7,B   4)           88.07  0.021020   -0.76     87.30   
    65. A(B   1,B   7,B   2)          112.42  0.035094   -1.32    111.10   
    66. A(B   4,B   7,B   5)           76.62  0.032722   -1.39     75.23   
    67. A(B   2,B   7,B   5)           50.48 -0.011087    0.36     50.84   
    68. A(B   3,B   8,B  11)          110.33 -0.000439    0.05    110.38   
    69. A(B   0,B   8,B   9)           41.67  0.007384   -0.44     41.23   
    70. A(B   0,B   8,B   3)           98.42  0.000331    0.01     98.43   
    71. A(B   3,B   8,B   9)           75.17 -0.003799    0.26     75.42   
    72. A(B   0,B   8,B  11)           31.55  0.003964   -0.17     31.38   
    73. A(B   9,B   8,B  11)           73.01  0.011084   -0.60     72.41   
    74. A(B   3,B   9,B   6)           51.98 -0.006538    0.27     52.25   
    75. A(B   6,B   9,B   8)           89.03  0.000621   -0.11     88.93   
    76. A(B   0,B   9,B   6)          108.70 -0.007593    0.43    109.13   
    77. A(B   3,B   9,B   8)           38.09  0.008479   -0.45     37.63   
    78. A(B   0,B   9,B   3)           98.06 -0.001844    0.14     98.21   
    79. A(B   0,B   9,B   8)           77.11 -0.006913    0.41     77.51   
    80. A(B   0,B  10,B  11)           31.90  0.005096   -0.23     31.67   
    81. A(B   0,B  10,B   1)           98.57 -0.001736    0.03     98.61   
    82. A(B   1,B  10,B  11)           90.03 -0.000784    0.06     90.08   
    83. A(B   0,B  11,B   8)           69.01 -0.000829    0.02     69.03   
    84. A(B   8,B  11,B  10)          100.77  0.000638   -0.01    100.76   
    85. A(B   0,B  11,B  10)           79.76 -0.011792    0.59     80.35   
    86. D(B   7,B   4,B   3,B   6)    -32.53  0.005643   -0.28    -32.82   
    87. D(B   7,B   4,B   3,B   8)    105.16 -0.000970   -0.02    105.14   
    88. D(B   7,B   4,B   3,B   5)     -0.16 -0.007500    0.26      0.11   
    89. D(B   7,B   4,B   3,B   9)     17.20  0.002787   -0.14     17.06   
    90. D(B   7,B   5,B   1,B  10)   -129.27  0.004766   -0.27   -129.54   
    91. D(B   2,B   5,B   3,B   9)     99.85 -0.016593    0.74    100.59   
    92. D(B   6,B   5,B   2,B   7)    164.44  0.012152   -0.47    163.97   
    93. D(B   2,B   5,B   3,B   8)    160.37 -0.017151    0.70    161.07   
    94. D(B   2,B   5,B   1,B   7)     35.92  0.022700   -0.93     34.99   
    95. D(B   6,B   5,B   1,B  10)     46.14  0.016340   -0.72     45.42   
    96. D(B   2,B   5,B   1,B  10)    -93.35  0.027466   -1.20    -94.55   
    97. D(B   1,B   5,B   3,B   6)   -156.63  0.032596   -1.35   -157.98   
    98. D(B   3,B   5,B   1,B   7)   -122.39 -0.018401    0.84   -121.55   
    99. D(B   1,B   5,B   2,B   6)    161.89 -0.031240    1.29    163.18   
   100. D(B   1,B   5,B   3,B   8)    -33.69  0.017831   -0.76    -34.45   
   101. D(B   1,B   5,B   2,B   7)    -33.67 -0.019088    0.82    -32.85   
   102. D(B   7,B   5,B   2,B   6)   -164.44 -0.012152    0.47   -163.97   
   103. D(B   1,B   5,B   3,B   9)    -94.21  0.018389   -0.71    -94.92   
   104. D(B   2,B   5,B   3,B   4)    -91.46 -0.021242    0.89    -90.57   
   105. D(B   1,B   5,B   3,B   4)     74.48  0.013740   -0.57     73.91   
   106. D(B   3,B   5,B   2,B   6)    -40.45  0.010118   -0.46    -40.91   
   107. D(B   2,B   5,B   3,B   6)     37.44 -0.002386    0.10     37.54   
   108. D(B   3,B   5,B   2,B   7)    124.00  0.022270   -0.94    123.06   
   109. D(B   6,B   5,B   1,B   7)    175.41  0.011575   -0.45    174.96   
   110. D(B   3,B   6,B   2,B   7)     26.89  0.000648    0.03     26.91   
   111. D(B   3,B   6,B   2,B   5)     41.41 -0.006388    0.32     41.73   
   112. D(B   9,B   6,B   2,B   7)    -35.23  0.014043   -0.46    -35.68   
   113. D(B   9,B   6,B   2,B   5)    -20.70  0.007007   -0.17    -20.87   
   114. D(B   2,B   6,B   3,B   9)   -136.68  0.019710   -0.66   -137.34   
   115. D(B   5,B   6,B   2,B   7)    -14.53  0.007036   -0.29    -14.82   
   116. D(B   3,B   6,B   5,B   2)   -137.78 -0.004807    0.29   -137.49   
   117. D(B   3,B   6,B   5,B   1)     70.38 -0.018456    0.82     71.20   
   118. D(B   2,B   6,B   5,B   7)     22.08 -0.002094    0.08     22.17   
   119. D(B   5,B   6,B   3,B   4)     39.74 -0.013977    0.55     40.29   
   120. D(B   5,B   6,B   3,B   9)   -107.62 -0.021290    0.98   -106.64   
   121. D(B   5,B   6,B   3,B   8)    -88.10 -0.012379    0.47    -87.63   
   122. D(B   2,B   6,B   3,B   5)    -29.06  0.041000   -1.64    -30.70   
   123. D(B   2,B   6,B   5,B   3)    137.78  0.004807   -0.29    137.49   
   124. D(B   2,B   6,B   3,B   4)     10.69  0.027023   -1.10      9.59   
   125. D(B   2,B   6,B   5,B   1)   -151.83 -0.013648    0.53   -151.31   
   126. D(B   3,B   6,B   5,B   7)   -115.70 -0.006901    0.37   -115.33   
   127. D(B   9,B   6,B   5,B   1)     14.35 -0.017470    0.71     15.07   
   128. D(B   2,B   6,B   3,B   8)   -117.16  0.028620   -1.17   -118.33   
   129. D(B   2,B   7,B   5,B   3)   -107.69 -0.014924    0.66   -107.03   
   130. D(B   2,B   7,B   5,B   1)    158.43  0.003409   -0.10    158.33   
   131. D(B   1,B   7,B   5,B   6)   -177.35 -0.001145    0.03   -177.31   
   132. D(B   1,B   7,B   5,B   2)   -158.43 -0.003409    0.10   -158.33   
   133. D(B   5,B   7,B   4,B   3)      0.26  0.012756   -0.45     -0.19   
   134. D(B   2,B   7,B   5,B   6)    -18.92  0.002264   -0.06    -18.98   
   135. D(B   1,B   7,B   4,B   3)    -64.50 -0.032671    1.22    -63.27   
   136. D(B   5,B   7,B   2,B   6)     18.76 -0.000893    0.06     18.82   
   137. D(B   4,B   7,B   2,B   6)    -49.85 -0.023473    0.96    -48.89   
   138. D(B   4,B   7,B   2,B   5)    -68.61 -0.022580    0.89    -67.71   
   139. D(B   2,B   7,B   4,B   3)     47.85  0.003910   -0.15     47.70   
   140. D(B   1,B   7,B   2,B   5)     21.13  0.010682   -0.42     20.71   
   141. D(B   5,B   7,B   1,B  10)     69.51 -0.012791    0.45     69.96   
   142. D(B   4,B   7,B   1,B   5)     76.13  0.030033   -1.32     74.81   
   143. D(B   1,B   7,B   5,B   3)     93.88 -0.018333    0.76     94.64   
   144. D(B   2,B   7,B   1,B   5)    -17.87  0.001060    0.00    -17.86   
   145. D(B   2,B   7,B   1,B  10)     51.65 -0.011731    0.45     52.10   
   146. D(B   4,B   7,B   1,B  10)    145.65  0.017241   -0.87    144.78   
   147. D(B   4,B   7,B   5,B   1)    -94.16  0.004701   -0.27    -94.43   
   148. D(B   1,B   7,B   2,B   6)     39.89  0.009788   -0.36     39.53   
   149. D(B   0,B   8,B   3,B   5)    -35.93 -0.001089    0.05    -35.88   
   150. D(B   0,B   8,B   3,B   4)    -99.67 -0.000678    0.08    -99.59   
   151. D(B   0,B   8,B   3,B   9)     34.88  0.006327   -0.39     34.50   
   152. D(B   9,B   8,B   3,B   5)    -70.81 -0.007416    0.44    -70.38   
   153. D(B   9,B   8,B   3,B   6)    -19.70 -0.009802    0.56    -19.15   
   154. D(B   9,B   8,B   3,B   4)   -134.56 -0.007005    0.47   -134.09   
   155. D(B  11,B   8,B   0,B   9)   -171.72  0.004219   -0.21   -171.93   
   156. D(B   9,B   8,B   0,B  10)    106.32 -0.008621    0.46    106.78   
   157. D(B   9,B   8,B   0,B  11)    171.72 -0.004219    0.21    171.93   
   158. D(B   3,B   8,B   0,B  10)     50.07 -0.008283    0.44     50.50   
   159. D(B   0,B   8,B   3,B   6)     15.18 -0.003475    0.17     15.35   
   160. D(B   3,B   8,B   0,B  11)    115.47 -0.003880    0.18    115.65   
   161. D(B   3,B   8,B   0,B   9)    -56.25  0.000338   -0.02    -56.28   
   162. D(B   6,B   9,B   8,B   0)   -109.44  0.007297   -0.43   -109.87   
   163. D(B   6,B   9,B   8,B   3)     12.25  0.006113   -0.34     11.91   
   164. D(B   3,B   9,B   8,B  11)   -117.17  0.003718   -0.21   -117.38   
   165. D(B   3,B   9,B   8,B   0)   -121.69  0.001184   -0.09   -121.78   
   166. D(B   0,B   9,B   8,B  11)      4.52  0.002534   -0.12      4.40   
   167. D(B   0,B   9,B   8,B   3)    121.69 -0.001184    0.09    121.78   
   168. D(B   8,B   9,B   6,B   5)     55.76 -0.004198    0.33     56.08   
   169. D(B   8,B   9,B   6,B   2)     70.08 -0.023822    1.01     71.09   
   170. D(B   0,B   9,B   6,B   3)    -85.60 -0.001086    0.05    -85.55   
   171. D(B   0,B   9,B   6,B   5)    -20.28  0.002144   -0.02    -20.30   
   172. D(B   0,B   9,B   6,B   2)     -5.96 -0.017480    0.66     -5.29   
   173. D(B   8,B   9,B   3,B   5)    123.34  0.002009    0.00    123.35   
   174. D(B   8,B   9,B   3,B   6)    164.38 -0.009306    0.50    164.88   
   175. D(B   8,B   9,B   3,B   4)    109.14 -0.005735    0.32    109.46   
   176. D(B   0,B   9,B   3,B   5)     66.44  0.003715   -0.09     66.35   
   177. D(B   0,B   9,B   3,B   6)    107.48 -0.007599    0.41    107.89   
   178. D(B   0,B   9,B   3,B   4)     52.24 -0.004028    0.23     52.46   
   179. D(B   8,B   9,B   6,B   3)     -9.56 -0.007428    0.40     -9.16   
   180. D(B   0,B   9,B   3,B   8)    -56.90  0.001707   -0.09    -56.99   
   181. D(B   6,B   9,B   0,B  11)     71.83 -0.005068    0.17     72.00   
   182. D(B   3,B   9,B   0,B  10)    -59.57 -0.002636    0.09    -59.47   
   183. D(B   3,B   9,B   0,B   8)     32.01  0.007058   -0.38     31.63   
   184. D(B   3,B   9,B   0,B  11)     19.33  0.001824   -0.13     19.20   
   185. D(B   8,B   9,B   0,B  10)    -91.58 -0.009694    0.48    -91.10   
   186. D(B   8,B   9,B   0,B  11)    -12.68 -0.005234    0.25    -12.43   
   187. D(B   0,B  10,B   1,B   7)   -114.19  0.028534   -0.87   -115.07   
   188. D(B   0,B  10,B   1,B   5)    -70.30 -0.019197    0.96    -69.33   
   189. D(B  11,B  10,B   1,B   7)   -145.04  0.023017   -0.64   -145.69   
   190. D(B  11,B  10,B   1,B   5)   -101.15 -0.024714    1.19    -99.95   
   191. D(B  11,B  10,B   0,B   8)     74.11 -0.004316    0.19     74.30   
   192. D(B  11,B  10,B   0,B   9)    137.10 -0.003130    0.15    137.25   
   193. D(B   1,B  10,B   0,B   8)     -1.93 -0.008535    0.26     -1.67   
   194. D(B   1,B  10,B   0,B  11)    -76.03 -0.004219    0.07    -75.96   
   195. D(B   1,B  10,B   0,B   9)     61.07 -0.007349    0.22     61.29   
   196. D(B   8,B  11,B  10,B   0)    -66.11  0.004451   -0.20    -66.31   
   197. D(B   8,B  11,B  10,B   1)     40.23 -0.000019   -0.12     40.11   
   198. D(B   0,B  11,B  10,B   1)    106.34 -0.004470    0.08    106.42   
   199. D(B  10,B  11,B   8,B   0)     74.53 -0.013667    0.67     75.19   
   200. D(B  10,B  11,B   8,B   9)     68.78 -0.017078    0.84     69.62   
   201. D(B  10,B  11,B   8,B   3)      2.28 -0.018779    0.88      3.16   
   202. D(B   0,B  11,B   8,B   9)     -5.74 -0.003411    0.17     -5.57   
   203. D(B   0,B  11,B   8,B   3)    -72.25 -0.005112    0.22    -72.03   
   204. D(B  10,B  11,B   0,B   8)   -105.82 -0.006262    0.28   -105.54   
   205. D(B  10,B  11,B   0,B   9)    -94.54 -0.001554    0.05    -94.48   
   206. D(B   8,B  11,B   0,B  10)    105.82  0.006262   -0.28    105.54   
   207. D(B   8,B  11,B   0,B   9)     11.29  0.004708   -0.23     11.06   
    ----------------------------------------------------------------------------

Geometry step timings:
Preparation and reading OPT file:      0.000 s ( 0.270 %)
Internal coordinates            :      0.000 s ( 0.235 %)
B/P matrices and projection     :      0.003 s (11.346 %)
Hessian update/contruction      :      0.003 s (10.969 %)
Making the step                 :      0.020 s (69.190 %)
Converting the step to Cartesian:      0.000 s ( 1.218 %)
Storing new data                :      0.000 s ( 0.419 %)
Checking convergence            :      0.000 s ( 0.270 %)
Final printing                  :      0.002 s ( 6.074 %)
Total time                      :      0.029 s

Time for energy+gradient        :      0.093 s
Time for complete geometry iter :      0.124 s

         *************************************************************
         *                GEOMETRY OPTIMIZATION CYCLE   2            *
         *************************************************************
---------------------------------
CARTESIAN COORDINATES (ANGSTROEM)
---------------------------------
  B    -1.973972    1.285106    0.939942
  B    -0.165218   -1.654180    0.464581
  B     0.724429   -0.963434   -2.060358
  B     1.327059    1.245820    0.157031
  B     2.257729   -0.746907    0.236613
  B     0.343054   -0.808369   -0.781261
  B     0.428489    0.570075   -1.928954
  B     0.913011   -2.011427   -0.733462
  B     0.645012    1.877197    1.501631
  B    -1.005533    2.285209   -0.280979
  B    -1.736533   -1.505013    0.298030
  B    -1.757527    0.425922    2.187185

----------------------------
CARTESIAN COORDINATES (A.U.)
----------------------------
  NO LB    ZA    FRAG    MASS        X           Y           Z
   0 B   5.0000    0    10.810   -3.730266    2.428499    1.776233
   1 B   5.0000    0    10.810   -0.312217   -3.125947    0.877932
   2 B   5.0000    0    10.810    1.368972   -1.820626   -3.893512
   3 B   5.0000    0    10.810    2.507778    2.354259    0.296745
   4 B   5.0000    0    10.810    4.266489   -1.411449    0.447133
   5 B   5.0000    0    10.810    0.648278   -1.527597   -1.476370
   6 B   5.0000    0    10.810    0.809728    1.077285   -3.645194
   7 B   5.0000    0    10.810    1.725341   -3.801047   -1.386042
   8 B   5.0000    0    10.810    1.218897    3.547388    2.837672
   9 B   5.0000    0    10.810   -1.900182    4.318420   -0.530974
  10 B   5.0000    0    10.810   -3.281572   -2.844062    0.563195
  11 B   5.0000    0    10.810   -3.321244    0.804877    4.133181

      -----------------------------------------------------------      
     |                   =====================                   |     
     |                           x T B                           |     
     |                   =====================                   |     
     |                         S. Grimme                         |     
     |          Mulliken Center for Theoretical Chemistry        |     
     |                    University of Bonn                     |     
      -----------------------------------------------------------      

   * xtb version 6.6.1 (unknown) compiled by 'builduser@buildhost' on 2023-08-07

   xtb is free software: you can redistribute it and/or modify it under
   the terms of the GNU Lesser General Public License as published by
   the Free Software Foundation, either version 3 of the License, or
   (at your option) any later version.
   
   xtb is distributed in the hope that it will be useful,
   but WITHOUT ANY WARRANTY; without even the implied warranty of
   MERCHANTABILITY or FITNESS FOR A PARTICULAR PURPOSE.  See the
   GNU Lesser General Public License for more details.
   
   Cite this work as:
   * C. Bannwarth, E. Caldeweyher, S. Ehlert, A. Hansen, P. Pracht,
     J. Seibert, S. Spicher, S. Grimme, WIREs Comput. Mol. Sci., 2020, 11,
     e01493. DOI: 10.1002/wcms.1493
   
   for GFN2-xTB:
   * C. Bannwarth, S. Ehlert and S. Grimme., J. Chem. Theory Comput., 2019,
     15, 1652-1671. DOI: 10.1021/acs.jctc.8b01176
   for GFN1-xTB:
   * S. Grimme, C. Bannwarth, P. Shushkov, J. Chem. Theory Comput., 2017,
     13, 1989-2009. DOI: 10.1021/acs.jctc.7b00118
   for GFN0-xTB:
   * P. Pracht, E. Caldeweyher, S. Ehlert, S. Grimme, ChemRxiv, 2019, preprint.
     DOI: 10.26434/chemrxiv.8326202.v1
   for GFN-FF:
   * S. Spicher and S. Grimme, Angew. Chem. Int. Ed., 2020, 59, 15665-15673.
     DOI: 10.1002/anie.202004239
   
   for ALPB and GBSA implicit solvation:
   * S. Ehlert, M. Stahn, S. Spicher, S. Grimme, J. Chem. Theory Comput.,
     2021, 17, 4250-4261. DOI: 10.1021/acs.jctc.1c00471
   
   for DFT-D4:
   * E. Caldeweyher, C. Bannwarth and S. Grimme, J. Chem. Phys., 2017,
     147, 034112. DOI: 10.1063/1.4993215
   * E. Caldeweyher, S. Ehlert, A. Hansen, H. Neugebauer, S. Spicher,
     C. Bannwarth and S. Grimme, J. Chem. Phys., 2019, 150, 154122.
     DOI: 10.1063/1.5090222
   * E. Caldeweyher, J.-M. Mewes, S. Ehlert and S. Grimme, Phys. Chem. Chem. Phys.
     2020, 22, 8499-8512. DOI: 10.1039/D0CP00502A
   
   for sTDA-xTB:
   * S. Grimme and C. Bannwarth, J. Chem. Phys., 2016, 145, 054103.
     DOI: 10.1063/1.4959605
   
   in the mass-spec context:
   * V. Asgeirsson, C. Bauer and S. Grimme, Chem. Sci., 2017, 8, 4879.
     DOI: 10.1039/c7sc00601b
   * J. Koopman and S. Grimme, ACS Omega 2019, 4, 12, 15120-15133.
     DOI: 10.1021/acsomega.9b02011
   
   for metadynamics refer to:
   * S. Grimme, J. Chem. Theory Comput., 2019, 155, 2847-2862
     DOI: 10.1021/acs.jctc.9b00143
   
   for SPH calculations refer to:
   * S. Spicher and S. Grimme, J. Chem. Theory Comput., 2021, 17, 1701-1714
     DOI: 10.1021/acs.jctc.0c01306
   
   with help from (in alphabetical order)
   P. Atkinson, C. Bannwarth, F. Bohle, G. Brandenburg, E. Caldeweyher
   M. Checinski, S. Dohm, S. Ehlert, S. Ehrlich, I. Gerasimov, C. Hölzer
   A. Katbashev, J. Koopman, C. Lavigne, S. Lehtola, F. März, M. Müller,
   F. Musil, H. Neugebauer, J. Pisarek, C. Plett, P. Pracht, F. Pultar,
   J. Seibert, P. Shushkov, S. Spicher, M. Stahn, M. Steiner, T. Strunk,
   J. Stückrath, T. Rose, and J. Unsleber
   
 * started run on 2026/04/17 at 12:14:31.448     

           -------------------------------------------------
          |                Calculation Setup                |
           -------------------------------------------------

          program call               : /usr/bin/xtb random_d1.50_001_m3_XTB.xyz --grad -c 0 -u 2 -P 1 --namespace random_d1.50_001_m3 --input random_d1.50_001_m3_XTB.input.tmp --acc 0.200000
          calculation namespace      : random_d1.50_001_m3
          coordinate file            : random_d1.50_001_m3_XTB.xyz
          omp threads                :                     1

   ID    Z sym.   atoms
    1    5 B      1-12

molecular fragmentation (1/2 indicates fragments):
122222222121
# atoms in fragment 1/2:     3     9
 fragment masses (1/2) :       32.43       97.30
CMA distance (Bohr)    :   5.728
constraining FC (au)   :  0.0500

           -------------------------------------------------
          |                 G F N 2 - x T B                 |
           -------------------------------------------------

        Reference                      10.1021/acs.jctc.8b01176
      * Hamiltonian:
        H0-scaling (s, p, d)           1.850000    2.230000    2.230000
        zeta-weighting                 0.500000
      * Dispersion:
        s8                             2.700000
        a1                             0.520000
        a2                             5.000000
        s9                             5.000000
      * Repulsion:
        kExp                           1.500000    1.000000
        rExp                           1.000000
      * Coulomb:
        alpha                          2.000000
        third order                    shell-resolved
        anisotropic                    true
        a3                             3.000000
        a5                             4.000000
        cn-shift                       1.200000
        cn-exp                         4.000000
        max-rad                        5.000000

q/qsh data taken from xtbrestart
CAMM data taken from xtbrestart

          ...................................................
          :                      SETUP                      :
          :.................................................:
          :  # basis functions                  48          :
          :  # atomic orbitals                  48          :
          :  # shells                           24          :
          :  # electrons                        36          :
          :  max. iterations                   250          :
          :  Hamiltonian                  GFN2-xTB          :
          :  restarted?                       true          :
          :  GBSA solvation                  false          :
          :  PC potential                    false          :
          :  electronic temp.          300.0000000     K    :
          :  accuracy                    0.2000000          :
          :  -> integral cutoff          0.3198970E+02      :
          :  -> integral neglect         0.2000000E-08      :
          :  -> SCF convergence          0.2000000E-06 Eh   :
          :  -> wf. convergence          0.2000000E-04 e    :
          :  Broyden damping             0.4000000          :
          ...................................................

 iter      E             dE          RMSdq      gap      omega  full diag
   1    -13.7264290 -0.137264E+02  0.103E+00    0.24       0.0  T
   2    -13.1217076  0.604721E+00  0.454E+00    0.23       1.0  T
   3    -13.5514083 -0.429701E+00  0.280E+00    0.22       1.0  T
   4    -13.6349131 -0.835048E-01  0.195E+00    0.23       1.0  T
   5    -13.6959610 -0.610478E-01  0.151E+00    0.23       1.0  T
   6    -13.7166709 -0.207100E-01  0.107E+00    0.31       1.0  T
   7    -13.7335731 -0.169022E-01  0.640E-01    0.25       1.0  T
   8    -13.7317990  0.177410E-02  0.581E-01    0.29       1.0  T
   9    -13.7352799 -0.348088E-02  0.601E-01    0.25       1.0  T
  10    -13.7382502 -0.297035E-02  0.412E-01    0.25       1.0  T
  11    -13.7399518 -0.170159E-02  0.313E-01    0.28       1.0  T
  12    -13.7407657 -0.813854E-03  0.212E-01    0.27       1.0  T
  13    -13.7408110 -0.453490E-04  0.176E-01    0.27       1.0  T
  14    -13.7408176 -0.658778E-05  0.173E-01    0.28       1.0  T
  15    -13.7409039 -0.863199E-04  0.145E-01    0.28       1.0  T
  16    -13.7410719 -0.167970E-03  0.939E-02    0.28       1.0  T
  17    -13.7411019 -0.299779E-04  0.715E-02    0.28       1.0  T
  18    -13.7411169 -0.150447E-04  0.560E-02    0.28       1.0  T
  19    -13.7411254 -0.850589E-05  0.425E-02    0.28       1.0  T
  20    -13.7411299 -0.446511E-05  0.296E-02    0.28       1.0  T
  21    -13.7411364 -0.652307E-05  0.150E-02    0.28       1.9  T
  22    -13.7411378 -0.136574E-05  0.763E-03    0.28       3.8  T
  23    -13.7411380 -0.194386E-06  0.359E-03    0.28       8.0  T
  24    -13.7411381 -0.999354E-07  0.460E-04    0.28      62.8  T
  25    -13.7411381 -0.122591E-08  0.275E-04    0.28     105.0  T
  26    -13.7411381 -0.152399E-08  0.800E-05    0.28     361.0  T
  27    -13.7411381 -0.778844E-10  0.323E-05    0.28     892.8  T

   *** convergence criteria satisfied after 27 iterations ***

         #    Occupation            Energy/Eh            Energy/eV
      -------------------------------------------------------------
         1        2.0000           -0.4423790             -12.0377
       ...           ...                  ...                  ...
        13        2.0000           -0.2632078              -7.1622
        14        2.0000           -0.2606974              -7.0939
        15        2.0000           -0.2510105              -6.8303
        16        1.9999           -0.2408992              -6.5552
        17        1.5963           -0.2322619              -6.3202
        18        1.4018           -0.2315134              -6.2998
        19        0.9973           -0.2259909              -6.1495 (HOMO)
        20        0.0046           -0.2157940              -5.8721 (LUMO)
        21        0.0001           -0.2116671              -5.7598
        22                         -0.2053124              -5.5868
        23                         -0.2010712              -5.4714
        24                         -0.1901348              -5.1738
       ...                                ...                  ...
        48                          2.5202954              68.5807
      -------------------------------------------------------------
                  HL-Gap            0.0101969 Eh            0.2775 eV
             Fermi-level           -0.2263940 Eh           -6.1605 eV

 transition dipole moment (au) for excitation:          18          19
     X       Y       Z   
  -1.5900  -1.7836  -0.3309  total (au/Debye):    2.412   6.131
 dE (eV)             :    0.150
 oscillator strength :  0.30297E-01

[...]
    21. B(B  11,B  10)                1.5225  0.000696 -0.0019    1.5207   
    22. B(B  11,B   8)                2.4792 -0.000825  0.0365    2.5158   
    23. A(B   9,B   0,B  10)           91.72  0.000132   -0.34     91.38   
    24. A(B   8,B   0,B  11)          103.27 -0.000164    2.69    105.96   
    25. A(B   8,B   0,B  10)           88.80  0.000102    1.14     89.93   
    26. A(B   9,B   0,B  11)          109.47 -0.000058    0.40    109.87   
    27. A(B  10,B   0,B  11)           19.41 -0.000283    0.98     20.39   
    28. A(B   8,B   0,B   9)           64.78 -0.000238    0.62     65.40   
    29. A(B   5,B   1,B  10)           57.11  0.000378   -0.30     56.81   
    30. A(B   5,B   1,B   7)           74.30 -0.000197    0.32     74.62   
    31. A(B   7,B   1,B  10)          131.41  0.000181    0.16    131.57   
    32. A(B   6,B   2,B   7)          135.54 -0.000262    0.79    136.33   
    33. A(B   5,B   2,B   6)           60.40 -0.000400    0.63     61.04   
    34. A(B   5,B   2,B   7)           75.78  0.000143    0.43     76.21   
    35. A(B   5,B   3,B   6)           44.53 -0.000069    0.25     44.77   
    36. A(B   4,B   3,B   6)           70.21 -0.000412    0.77     70.98   
    37. A(B   4,B   3,B   5)           70.41  0.000208    0.24     70.65   
    38. A(B   5,B   3,B   9)           47.23 -0.000176    0.18     47.41   
    39. A(B   8,B   3,B   9)           37.94 -0.000072    1.07     39.01   
    40. A(B   6,B   3,B   9)           33.79  0.000232    0.04     33.83   
    41. A(B   6,B   3,B   8)           71.72  0.000158    1.13     72.85   
    42. A(B   4,B   3,B   9)          101.96 -0.000128    0.63    102.59   
    43. A(B   5,B   3,B   8)           67.54 -0.000277    1.02     68.56   
    44. A(B   4,B   3,B   8)          136.26 -0.000133    1.17    137.43   
    45. A(B   3,B   4,B   7)          138.18 -0.000462    0.08    138.26   
    46. A(B   6,B   5,B   7)           89.36 -0.000708    0.39     89.75   
    47. A(B   1,B   5,B   6)          118.53 -0.000499   -0.17    118.36   
    48. A(B   2,B   5,B   7)           43.45 -0.000536    0.26     43.71   
    49. A(B   1,B   5,B   7)           41.16  0.000179   -0.06     41.10   
    50. A(B   1,B   5,B   2)           79.40 -0.000323    0.21     79.61   
    51. A(B   3,B   5,B   6)           89.69 -0.000121   -0.05     89.65   
    52. A(B   2,B   5,B   3)           86.13 -0.000065   -0.47     85.66   
    53. A(B   1,B   5,B   3)          116.75  0.000170   -0.15    116.60   
    54. A(B   2,B   5,B   6)           46.17 -0.000171    0.24     46.42   
    55. A(B   3,B   5,B   7)           90.29 -0.000003   -0.16     90.13   
    56. A(B   5,B   6,B   9)           69.82 -0.000403   -0.40     69.41   
    57. A(B   2,B   6,B   9)          142.40  0.000181   -1.53    140.87   
    58. A(B   2,B   6,B   5)           73.42  0.000571   -0.88     72.54   
    59. A(B   3,B   6,B   5)           45.78  0.000190   -0.20     45.58   
    60. A(B   2,B   6,B   3)           74.95  0.000422   -1.04     73.91   
    61. A(B   3,B   6,B   9)           74.00 -0.000177   -0.52     73.48   
    62. A(B   1,B   7,B   5)           64.55  0.000017   -0.26     64.28   
    63. A(B   2,B   7,B   4)           64.19  0.000054   -0.33     63.86   
    64. A(B   1,B   7,B   4)          112.36  0.000307   -0.49    111.87   
    65. A(B   1,B   7,B   2)          114.92  0.000341   -0.67    114.25   
    66. A(B   4,B   7,B   5)           59.02  0.000238    0.00     59.02   
    67. A(B   2,B   7,B   5)           60.77  0.000393   -0.68     60.08   
    68. A(B   3,B   8,B  11)          106.36  0.000420   -0.22    106.14   
    69. A(B   0,B   8,B   9)           56.98 -0.000114    0.09     57.08   
    70. A(B   0,B   8,B   3)          141.28  0.000309   -2.02    139.26   
    71. A(B   3,B   8,B   9)          109.23  0.000453   -1.79    107.45   
    72. A(B   0,B   8,B  11)           37.20 -0.000205   -1.16     36.03   
    73. A(B   9,B   8,B  11)           72.63 -0.000210   -0.98     71.66   
    74. A(B   3,B   9,B   6)           72.21 -0.000055    0.49     72.69   
    75. A(B   6,B   9,B   8)          105.03 -0.000439    1.21    106.23   
    76. A(B   0,B   9,B   6)          138.24 -0.000199    0.21    138.45   
    77. A(B   3,B   9,B   8)           32.83 -0.000381    0.72     33.55   
    78. A(B   0,B   9,B   3)           84.69  0.000052   -0.36     84.33   
    79. A(B   0,B   9,B   8)           58.24  0.000352   -0.71     57.53   
    80. A(B   0,B  10,B  11)           19.65 -0.000545    1.04     20.68   
    81. A(B   0,B  10,B   1)          128.08 -0.000393    0.45    128.53   
    82. A(B   1,B  10,B  11)          147.59 -0.000951    1.54    149.13   
    83. A(B   0,B  11,B   8)           39.53  0.000368   -1.52     38.00   
    84. A(B   8,B  11,B  10)          107.72  0.000473   -1.33    106.40   
    85. A(B   0,B  11,B  10)          140.94  0.000828   -2.02    138.92   
    86. D(B   7,B   4,B   3,B   6)    -64.35  0.000070    0.73    -63.62   
    87. D(B   7,B   4,B   3,B   8)    -33.46 -0.000242    1.87    -31.59   
    88. D(B   7,B   4,B   3,B   5)    -16.90  0.000025    0.65    -16.25   
    89. D(B   7,B   4,B   3,B   9)    -52.60 -0.000029    1.10    -51.49   
    90. D(B   7,B   5,B   1,B  10)    179.83  0.000016    0.67    180.50   
    91. D(B   2,B   5,B   3,B   9)     93.70  0.000291   -0.04     93.66   
    92. D(B   6,B   5,B   2,B   7)   -172.19  0.000061    0.70   -171.49   
    93. D(B   2,B   5,B   3,B   8)    132.42  0.000367    0.60    133.03   
    94. D(B   2,B   5,B   1,B   7)     24.75 -0.000246    0.05     24.81   
    95. D(B   6,B   5,B   1,B  10)   -130.06 -0.000309    0.59   -129.46   
    96. D(B   2,B   5,B   1,B  10)   -155.42 -0.000230    0.73   -154.69   
    97. D(B   1,B   5,B   3,B   6)    122.15 -0.000599    0.07    122.22   
    98. D(B   3,B   5,B   1,B   7)    -55.39  0.000051    0.42    -54.96   
    99. D(B   1,B   5,B   2,B   6)    148.56 -0.000164   -0.65    147.91   
   100. D(B   1,B   5,B   3,B   8)   -151.50 -0.000067    0.60   -150.90   
   101. D(B   1,B   5,B   2,B   7)    -23.62 -0.000104    0.05    -23.58   
   102. D(B   7,B   5,B   2,B   6)    172.19 -0.000061   -0.70    171.49   
   103. D(B   1,B   5,B   3,B   9)    169.77 -0.000143   -0.04    169.74   
   104. D(B   2,B   5,B   3,B   4)    -35.26  0.000619   -0.78    -36.04   
   105. D(B   1,B   5,B   3,B   4)     40.81  0.000184   -0.79     40.03   
   106. D(B   3,B   5,B   2,B   6)    -93.30  0.000084   -0.26    -93.56   
   107. D(B   2,B   5,B   3,B   6)     46.08 -0.000164    0.07     46.15   
   108. D(B   3,B   5,B   2,B   7)     94.51  0.000145    0.44     94.95   
   109. D(B   6,B   5,B   1,B   7)     50.11 -0.000325    0.45     50.56   
   110. D(B   3,B   6,B   2,B   7)     58.51  0.000120    0.85     59.36   
   111. D(B   3,B   6,B   2,B   5)     47.67  0.000079   -0.14     47.52   
   112. D(B   9,B   6,B   2,B   7)     23.29 -0.000072    1.91     25.20   
   113. D(B   9,B   6,B   2,B   5)     12.44 -0.000113    0.92     13.37   
   114. D(B   2,B   6,B   3,B   9)   -158.52  0.000035    0.26   -158.27   
   115. D(B   5,B   6,B   2,B   7)     10.84  0.000041    0.99     11.83   
   116. D(B   3,B   6,B   5,B   2)    -84.93 -0.000013    0.48    -84.45   
   117. D(B   3,B   6,B   5,B   1)   -120.62  0.000033    0.45   -120.17   
   118. D(B   2,B   6,B   5,B   7)     -5.36  0.000011   -0.37     -5.73   
   119. D(B   5,B   6,B   3,B   4)     81.82  0.000718   -0.46     81.35   
   120. D(B   5,B   6,B   3,B   9)    -77.18  0.000412   -0.02    -77.21   
   121. D(B   5,B   6,B   3,B   8)    -76.23  0.000542   -0.53    -76.76   
   122. D(B   2,B   6,B   3,B   5)    -81.34 -0.000378    0.28    -81.06   
   123. D(B   2,B   6,B   5,B   3)     84.93  0.000013   -0.48     84.45   
   124. D(B   2,B   6,B   3,B   4)      0.47  0.000340   -0.18      0.29   
   125. D(B   2,B   6,B   5,B   1)    -35.70  0.000045   -0.55    -36.25   
   126. D(B   3,B   6,B   5,B   7)    -90.29 -0.000002    0.11    -90.18   
   127. D(B   9,B   6,B   5,B   1)    152.36 -0.000039    0.28    152.64   
   128. D(B   2,B   6,B   3,B   8)   -157.58  0.000165   -0.25   -157.82   
   129. D(B   2,B   7,B   5,B   3)    -84.06  0.000152    0.45    -83.61   
   130. D(B   2,B   7,B   5,B   1)    143.24  0.000021    0.28    143.52   
   131. D(B   1,B   7,B   5,B   6)   -137.61  0.000007    0.22   -137.39   
   132. D(B   1,B   7,B   5,B   2)   -143.24 -0.000021   -0.28   -143.52   
   133. D(B   5,B   7,B   4,B   3)     15.46 -0.000031   -0.73     14.73   
   134. D(B   2,B   7,B   5,B   6)      5.63  0.000028    0.50      6.12   
   135. D(B   1,B   7,B   4,B   3)    -22.44  0.000057   -0.53    -22.97   
   136. D(B   5,B   7,B   2,B   6)     -9.71  0.000009   -0.78    -10.50   
   137. D(B   4,B   7,B   2,B   6)    -77.10 -0.000137   -0.93    -78.03   
   138. D(B   4,B   7,B   2,B   5)    -67.38 -0.000146   -0.15    -67.53   
   139. D(B   2,B   7,B   4,B   3)     85.45  0.000346   -1.38     84.07   
   140. D(B   1,B   7,B   2,B   5)     36.58  0.000102   -0.57     36.00   
   141. D(B   5,B   7,B   1,B  10)     -0.19  0.000017    0.70      0.51   
   142. D(B   4,B   7,B   1,B   5)     35.69  0.000016   -0.05     35.64   
   143. D(B   1,B   7,B   5,B   3)    132.70  0.000131    0.17    132.87   
   144. D(B   2,B   7,B   1,B   5)    -35.16 -0.000246    0.72    -34.44   
   145. D(B   2,B   7,B   1,B  10)    -35.35 -0.000229    1.42    -33.93   
   146. D(B   4,B   7,B   1,B  10)     35.50  0.000033    0.65     36.15   
   147. D(B   4,B   7,B   5,B   1)   -141.00 -0.000200    0.24   -140.76   
   148. D(B   1,B   7,B   2,B   6)     26.86  0.000111   -1.36     25.50   
   149. D(B   0,B   8,B   3,B   5)     12.49  0.000255   -0.78     11.72   
   150. D(B   0,B   8,B   3,B   4)     29.39  0.000586   -1.91     27.48   
   151. D(B   0,B   8,B   3,B   9)     60.83  0.000282   -1.40     59.43   
   152. D(B   9,B   8,B   3,B   5)    -48.33 -0.000027    0.62    -47.71   
   153. D(B   9,B   8,B   3,B   6)     -0.86 -0.000124    0.57     -0.29   
   154. D(B   9,B   8,B   3,B   4)    -31.44  0.000303   -0.51    -31.95   
   155. D(B  11,B   8,B   0,B   9)   -105.51  0.000022    0.89   -104.62   
   156. D(B   9,B   8,B   0,B  10)     92.47  0.000108   -0.97     91.50   
   157. D(B   9,B   8,B   0,B  11)    105.51 -0.000022   -0.89    104.62   
   158. D(B   3,B   8,B   0,B  10)     12.98 -0.000288    0.38     13.37   
   159. D(B   0,B   8,B   3,B   6)     59.97  0.000158   -0.83     59.14   
   160. D(B   3,B   8,B   0,B  11)     26.03 -0.000418    0.46     26.49   
   161. D(B   3,B   8,B   0,B   9)    -79.48 -0.000396    1.35    -78.13   
   162. D(B   6,B   9,B   8,B   0)   -137.91  0.000066    0.35   -137.56   
   163. D(B   6,B   9,B   8,B   3)      1.44  0.000198   -0.76      0.69   
   164. D(B   3,B   9,B   8,B  11)   -101.74 -0.000284    0.27   -101.47   
   165. D(B   3,B   9,B   8,B   0)   -139.36 -0.000132    1.10   -138.25   
   166. D(B   0,B   9,B   8,B  11)     37.62 -0.000152   -0.83     36.78   
   167. D(B   0,B   9,B   8,B   3)    139.36  0.000132   -1.10    138.25   
   168. D(B   8,B   9,B   6,B   5)     47.30  0.000162    0.25     47.54   
   169. D(B   8,B   9,B   6,B   2)     34.59  0.000206   -0.79     33.79   
   170. D(B   0,B   9,B   6,B   3)    -59.64 -0.000218    0.11    -59.54   
   171. D(B   0,B   9,B   6,B   5)    -11.53  0.000049    0.00    -11.52   
   172. D(B   0,B   9,B   6,B   2)    -24.24  0.000093   -1.04    -25.27   
   173. D(B   8,B   9,B   3,B   5)    109.88 -0.000200    0.61    110.49   
   174. D(B   8,B   9,B   3,B   6)    178.54 -0.000204    0.80    179.33   
   175. D(B   8,B   9,B   3,B   4)    158.37  0.000152    0.14    158.51   
   176. D(B   0,B   9,B   3,B   5)     76.09 -0.000240    0.01     76.10   
   177. D(B   0,B   9,B   3,B   6)    144.74 -0.000244    0.20    144.95   
   178. D(B   0,B   9,B   3,B   4)    124.58  0.000112   -0.45    124.13   
   179. D(B   8,B   9,B   6,B   3)     -0.82 -0.000105    0.35     -0.47   
   180. D(B   0,B   9,B   3,B   8)    -33.79 -0.000040   -0.59    -34.38   
   181. D(B   6,B   9,B   0,B  11)    -19.52  0.000105   -2.03    -21.55   
   182. D(B   3,B   9,B   0,B  10)    -67.09 -0.000323   -0.64    -67.72   
   183. D(B   3,B   9,B   0,B   8)     20.77 -0.000284    0.87     21.64   
   184. D(B   3,B   9,B   0,B  11)    -75.12 -0.000048   -2.29    -77.41   
   185. D(B   8,B   9,B   0,B  10)    -87.86 -0.000039   -1.50    -89.36   
   186. D(B   8,B   9,B   0,B  11)    -95.89  0.000236   -3.16    -99.05   
   187. D(B   0,B  10,B   1,B   7)      1.44  0.000050   -2.32     -0.88   
   188. D(B   0,B  10,B   1,B   5)      1.22  0.000071   -1.35     -0.13   
   189. D(B  11,B  10,B   1,B   7)     -2.18  0.000005   -2.01     -4.19   
   190. D(B  11,B  10,B   1,B   5)     -2.40  0.000025   -1.04     -3.44   
   191. D(B  11,B  10,B   0,B   8)    138.64 -0.000246    2.94    141.58   
   192. D(B  11,B  10,B   0,B   9)   -156.64 -0.000485    3.51   -153.13   
   193. D(B   1,B  10,B   0,B   8)    -35.59  0.000132    1.74    -33.85   
   194. D(B   1,B  10,B   0,B  11)   -174.22  0.000378   -1.20   -175.42   
   195. D(B   1,B  10,B   0,B   9)     29.14 -0.000107    2.31     31.44   
   196. D(B   8,B  11,B  10,B   0)    -26.97 -0.000428    2.42    -24.55   
   197. D(B   8,B  11,B  10,B   1)    -18.48 -0.000047    1.09    -17.39   
   198. D(B   0,B  11,B  10,B   1)      8.50  0.000381   -1.34      7.16   
   199. D(B  10,B  11,B   8,B   0)    153.32  0.000315    0.31    153.62   
   200. D(B  10,B  11,B   8,B   9)     95.48  0.000318   -0.72     94.75   
   201. D(B  10,B  11,B   8,B   3)    -10.06 -0.000019    1.32     -8.75   
   202. D(B   0,B  11,B   8,B   9)    -57.84  0.000003   -1.03    -58.87   
   203. D(B   0,B  11,B   8,B   3)   -163.38 -0.000334    1.01   -162.37   
   204. D(B  10,B  11,B   0,B   8)    -42.75 -0.000225    2.53    -40.22   
   205. D(B  10,B  11,B   0,B   9)     24.86 -0.000532    3.82     28.68   
   206. D(B   8,B  11,B   0,B  10)     42.75  0.000225   -2.53     40.22   
   207. D(B   8,B  11,B   0,B   9)     67.61 -0.000307    1.29     68.90   
    ----------------------------------------------------------------------------

Geometry step timings:
Preparation and reading OPT file:      0.000 s ( 0.694 %)
Internal coordinates            :      0.000 s ( 0.605 %)
B/P matrices and projection     :      0.003 s (28.448 %)
Hessian update/contruction      :      0.003 s (23.873 %)
Making the step                 :      0.004 s (33.186 %)
Converting the step to Cartesian:      0.000 s ( 2.002 %)
Storing new data                :      0.000 s ( 0.408 %)
Checking convergence            :      0.000 s ( 0.727 %)
Final printing                  :      0.001 s (10.057 %)
Total time                      :      0.012 s

Time for energy+gradient        :      0.071 s
Time for complete geometry iter :      0.085 s




    ----------------------------------------------------------------------------
                                  WARNING !!!
       The optimization did not converge but reached the maximum number of
       optimization cycles.
       Please check your results very carefully.
    ----------------------------------------------------------------------------



--------------------------------
SUGGESTED CITATIONS FOR THIS RUN
--------------------------------

Below you find a list of papers that are relevant to this ORCA run
We neither can nor want to force you to cite these papers, but we appreciate if you do
You receive ORCA, which is the product of decades of hard work by many enthusiastic individuals, for free
The only thing we kindly ask in return is that you cite our papers,
We deeply appreciate it, if you show your appreciation for ORCA by not just citing the generic ORCA reference.

Please note that relegating all ORCA citations to the supporting information does *not* help us.
SI sections are not indexed - citations you put there will not count into any citation statistics
But we need these citations in order to attract the funding resources that allow us to do what we are doing

Therefore, if you are a happy ORCA user, please consider citing a few of the papers listed below in the main body of your paper

In addition to the list printed below, the program has created the file random_d1.50_001_m3.bibtex that contains the list in bibtex format
You can import this file easily into all common literature databanks and citation aid programs

It goes without saying that in many instances, there are alternative algorithms to achieve similar
results as the ones you have gotten from ORCA. It is, of course, also the case that in some instances
ORCA just re-implements algorithms worked out by others. We are fully aware of that and we are also
fully appreciative of our colleagues work. Hence this citation list should not be read as indicating
that the listed papers, which are focused on our own work, are the only ones worth citing. It simply
meant to make it easier for users to cite ORCA specific papers. It is not a substitute for doing your
own literature research and citing the relevant literature in a scientifically appropriate manner.

List of essential papers. We consider these as the minimum necessary citations

  1. Bannwarth, C.; Ehlert, S.; Grimme, S.
     GFN2-xTB—An Accurate and Broadly Parametrized Self-Consistent Tight-Binding Quantum Chemical Method with Multipole Electrostatics and Density-Dependent Dispersion Contributions
     J. Chem. Theory Comput. 2019 15(3), 1652-1671
     doi.org/10.1021/acs.jctc.8b01176
  2. Neese, F.
     Software update: the ORCA program system, version 6.0
     WIRES Comput. Molec. Sci. 2025 15(1), e70019
     doi.org/10.1002/wcms.70019

List of papers to cite with high priority. The work reported in these papers was absolutely
necessary for this run to complete.
Our perspective: the developers of density functionals and basis sets usually get cited in chemistry papers
Good! But without the algorithms to do something with them, the functionals or basis sets would not do anything.
Hence, in our opinion, the algorithm design and method developments papers are equally worthy of getting cited

  1. Bannwarth, C.; Caldeweyher, E.; Ehlert, S.; Hansen, A.; Pracht, P.; Seibert, J.; Spicher, S.; Grimme, S.
     Extended tight-binding quantum chemistry methods
     WIRES Comput. Molec. Sci. 2020 11(2), e1493
     doi.org/10.1002/wcms.1493

List of suggested additional citations. These are papers that are important in the 'surrounding' of 
of this run, or papers that preceded the highly important papers. If you like your results we are grateful for a citation.

  1. Neese, F.
     The ORCA program system
     WIRES Comput. Molec. Sci. 2012 2(1), 73-78
     doi.org/10.1002/wcms.81
  2. Neese, F.
     Software update: the ORCA program system, version 4.0
     WIRES Comput. Molec. Sci. 2018 8(1), 1-6
     doi.org/10.1002/wcms.1327
  3. Neese, F.; Wennmohs, F.; Becker, U.; Riplinger, C.
     The ORCA quantum chemistry program package
     J. Chem. Phys. 2020 152(22), 224108
     doi.org/10.1063/5.0004608
  4. Neese, F.
     Software update: The ORCA program system—Version 5.0
     WIRES Comput. Molec. Sci. 2022 12(1), e1606
     doi.org/10.1002/wcms.1606

List of optional additional citations

  1. Neese, F.
     Approximate second-order SCF convergence for spin unrestricted wavefunctions
     Chem. Phys. Lett. 2000 325(1-3), 93-98
     doi.org/10.1016/s0009-2614(00)00662-x

Timings for individual modules:

Sum of individual times          ...        3.761 sec (=   0.063 min)
Geometry relaxation              ...        0.874 sec (=   0.015 min)  23.2 %
XTB module                       ...        2.888 sec (=   0.048 min)  76.8 %
                             ****ORCA TERMINATED NORMALLY****
TOTAL RUN TIME: 0 days 0 hours 0 minutes 4 seconds 319 msec
