
                                 *****************
                                 * O   R   C   A *
                                 *****************

                                            #,                                       
                                            ###                                      
                                            ####                                     
                                            #####                                    
                                            ######                                   
                                           ########,                                 
                                     ,,################,,,,,                         
                               ,,#################################,,                 
                          ,,##########################################,,             
                       ,#########################################, ''#####,          
                    ,#############################################,,   '####,        
                  ,##################################################,,,,####,       
                ,###########''''           ''''###############################       
              ,#####''   ,,,,##########,,,,          '''####'''          '####       
            ,##' ,,,,###########################,,,                        '##       
           ' ,,###''''                  '''############,,,                           
         ,,##''                                '''############,,,,        ,,,,,,###''
      ,#''                                            '''#######################'''  
     '                                                          ''''####''''         
             ,#######,   #######,   ,#######,      ##                                
            ,#'     '#,  ##    ##  ,#'     '#,    #''#        ,####,    ,#,          
            ##       ##  ##   ,#'  ##            #'  '#       #'       ,# #          
            ##       ##  #######   ##           ,######,      #####,      #          
            '#,     ,#'  ##    ##  '#,     ,#' ,#      #,     #,   #      #          
             '#######'   ##     ##  '#######'  #'      '#     '####' #    #          



                #########################################################
                #                        -***-                          #
                #          Department of theory and spectroscopy        #
                #                                                       #
                #                      Frank Neese                      #
                #                                                       #
                #     Directorship, Architecture, Infrastructure        #
                #                    SHARK, DRIVERS                     #
                #        Core code/Algorithms in most modules           #
                #                                                       #
                #        Max Planck Institute fuer Kohlenforschung      #
                #                Kaiser Wilhelm Platz 1                 #
                #                 D-45470 Muelheim/Ruhr                 #
                #                      Germany                          #
                #                                                       #
                #                  All rights reserved                  #
                #                        -***-                          #
                #########################################################


                         Program Version 6.1.1  -  RELEASE   -
                                (GIT: $487d211c$)
                          ($2025-11-21 10:33:24 +0100$)
                                                                         
                                  - NO-DMRG VERSION -                    
                                                                         


 With contributions from (in alphabetic order):
[Max-Planck-Institut fuer Kohlenforschung]                               
  Daniel Aravena         : Magnetic Suceptibility                        
  Michael Atanasov       : Ab Initio Ligand Field Theory (pilot matlab implementation)
  Alexander A. Auer      : GIAO ZORA, VPT2 properties, NMR spectrum      
  Ute Becker             : All parallelization in ORCA, NUMFREQ, NUMCALC 
  Giovanni Bistoni       : ED, misc. LED, open-shell LED, HFLD           
  Dmytro Bykov           : pre 5.0 version of the SCF Hessian            
  Marcos Casanova-Páez   : Triplet and SCS-CIS(D). UHF-(DLPNO)-IP/EA/STEOM-CCSD. UHF-CVS-IP/STEOM-CCSD   
  Vijay G. Chilkuri      : MRCI spin determinant printing, contributions to CSF-ICE 
  Pauline Colinet        : FMM embedding                                 
  Dipayan Datta          : RHF DLPNO-CCSD density                        
  Achintya Kumar Dutta   : EOM-CC, STEOM-CC                              
  Nicolas Foglia         : Exact transition moments, OPA infrastructure, MCD improvements    
  Dmitry Ganyushin       : Spin-Orbit,Spin-Spin,Magnetic field MRCI      
  Miquel Garcia-Rates    : C-PCM and meta-GGA Hessian, CCSD/C-PCM, Gaussian charge scheme 
  Tiago L. C. Gouveia    : GS-ROHF, GS-ROCIS                             
  Yang Guo               : DLPNO-NEVPT2, F12-NEVPT2, CIM, IAO-localization        
  Andreas Hansen         : Spin unrestricted coupled pair/coupled cluster methods 
  Ingolf Harden          : AUTO-CI MPn and infrastructure                
  Benjamin Helmich-Paris : MC-RPA, TRAH-(SCF,CASSCF), AVAS, COSX integrals, SCF dyn. polar., MC-PDFT, srDFT 
  Lee Huntington         : MR-EOM, pCC                                   
  Robert Izsak           : Overlap fitted RIJCOSX, COSX-SCS-MP3, EOM     
  Riya Kayal             : Wick's Theorem for AUTO-CI, AUTO-CI UHF-CCSDT 
  Emily Kempfer          : AUTO-CI RHF CISDT and CCSDT, approximate NEVPT4
  Christian Kollmar      : KDIIS, OOCD, Brueckner-CCSD(T), CCSD density, CASPT2, CASPT2-K, improved NEVPT2 
  Axel Koslowski         : Symmetry handling                             
  Simone Kossmann        : meta-GGA functionals, TD-DFT gradient, OOMP2, (MP2 Hessian; deprecated post 5.0) 
  Lucas Lang             : DCDCAS, Hyperfine gauge corrections, ICE-SOC+SSC
  Marvin Lechner         : AUTO-CI (C++ implementation), FIC-MRCC        
  Spencer Leger          : CASSCF response                               
  Dagmar Lenk            : GEPOL surface, SMD, ORCA-2-JSON               
  Dimitrios Liakos       : Extrapolation schemes; Compound Job, Property file
  Dimitrios Manganas     : Further ROCIS development; embedding schemes. LFT, Crystal Embedding 
  Dimitrios Pantazis     : SARC Basis sets                               
  Anastasios Papadopoulos: AUTO-CI, single reference methods and gradients 
  Taras Petrenko         : pre 6.0 DFT Hessian and TD-DFT gradient,  ECA, NRVS 
  Petra Pikulova         : Analytic Raman intensities                    
  Peter Pinski           : DLPNO-MP2, DLPNO-MP2 Gradient                 
  Shashank Vittal Rao    : ES-AILFT, MagRelax                            
  Christoph Reimann      : Effective Core Potentials                     
  Marius Retegan         : Local ZFS, SOC                                
  Christoph Riplinger    : Optimizer, TS searches, QM/MM, DLPNO-CCSD(T), (RO)-DLPNO pert. Triples 
  Michael Roemelt        : Original ROCIS implementation, recursive CI coupling coefficients
  Masaaki Saitow         : Open-shell DLPNO-CCSD energy and density      
  Barbara Sandhoefer     : DKH picture change effects                    
  Yorick L. A. Schmerwitz: GMF and freeze-and-release deltaSCF, NEB S-IDPP initial path                    
  Kantharuban Sivalingam : CASSCF convergence/infrastructure, NEVPT2, NEVPT3, NEVPT4(SD), FIC-MRCI and CEPA variants
  Bernardo de Souza      : ESD, SOC TD-DFT                               
  Georgi L. Stoychev     : AutoAux, RI-MP2 NMR, DLPNO-MP2 response, X2C  
  Van Anh Tran           : RI-MP2 g-tensors                              
  Willem Van den Heuvel  : Paramagnetic NMR                              
  Zikuan Wang            : NOTCH, Electric field optimization            
  Frank Wennmohs         : Technical directorship and infrastructure     
  Hang Xu                : AUTO-CI-Response properties                   
                                                                         
[FACCTs GmbH]                                                            
  Markus Bursch, Nicolas Foglia, Miquel Garcia-Rates, Ingolf Harden, Hagen Neugebauer, Anastasios Papadopoulos, 
  Christoph Riplinger, Bernardo de Souza, Georgi L. Stoychev                                                    
                                                                 
  APM, various basis sets, CI-OPT, improved COSX, DLPNO-Multilevel,           
  DOCKER, DRACO, updates on ESD, Fragmentator, GOAT, IRC, LR-CPCM, L-BFGS, MBIS, meta-GGA TD-DFT gradient, ML-optimized integration grids, 
  MM, NACMEs, nearIR, NEB, NEB-TS, NL-DFT gradient (VV10), 2- and 3-layer-ONIOM, interface openCOSMO-RS, QMMM,   
  Crystal-QMMM, RESP, rigid body optimization, SF, symmetry and pop. for TD-DFT, various functionals, SOLVATOR                                   
                                                                         
[Other institutions]                                                     
  V. Asgeirsson          : NEB                                           
  Christoph Bannwarth    : sTDA-DFT, sTD-DFT, PBEh-3c, B97-3c, D3        
  Giovanni Bistoni       : ETS/NOCV, ADLD/ADEX, COVALED                  
  Martin Brehm           : Molecular dynamics                            
  Ronald Cardenas        : ETS/NOCV                                      
  Martina Colucci        : COVALED                                       
  Sebastian Ehlert       : rSCAN, r2SCAN, r2SCAN-3c, D4, dhf basis sets  
  Marvin Friede          : D4 for Fr, Ra, Ac-Lr                          
  Lars Goerigk           : TD-DFT with DH, B97 family of functionals     
  Stefan Grimme          : VdW corrections, initial TS optimization, DFT functionals, gCP, sTDA/sTD-DF 
  Waldemar Hujo          : DFT-NL                                        
  H. Jonsson             : NEB                                           
  Holger Kruse           : gCP                                           
  Marcel Mueller         : wB97X-3c, vDZP basis set                      
  Hagen Neugebauer       : wr2SCAN, Native XTB                           
  Gianluca Regni         : ADLD/ADEX                                     
  Tobias Risthaus        : pre 6.0 range-separated hybrid DFT and stability analysis
  Lukas Wittmann         : regularized MP2, r2SCAN double-hybrids, wr2SCAN        
                                                                         
We gratefully acknowledge several colleagues who have allowed us to      
interface, adapt or use parts of their codes:                            
  Ed Valeev, F. Pavosevic, A. Kumar             : LibInt (2-el integral package), F12 methods 
  Garnet Chan, S. Sharma, J. Yang, R. Olivares  : DMRG                   
  Ulf Ekstrom                                   : XCFun DFT Library      
  Mihaly Kallay                                 : mrcc  (arbitrary order and MRCC methods)
  Frank Weinhold                                : gennbo (NPA and NBO analysis)           
  Simon Mueller                                 : openCOSMO-RS                            
  Christopher J. Cramer and Donald G. Truhlar   : smd solvation model                     
  S Lehtola, MJT Oliveira, MAL Marques          : LibXC Library                           
  Liviu Ungur et al                             : ANISO software                          


 Your calculation uses the libint2 library for the computation of 2-el integrals
 For citations please refer to: http://libint.valeyev.net

 Your ORCA version has been built with support for libXC version: 7.0.0
 For citations please refer to: https://libxc.gitlab.io

 This ORCA versions uses:
   CBLAS   interface :  Fast vector & matrix operations
   LAPACKE interface :  Fast linear algebra routines
   SCALAPACK package :  Parallel linear algebra routines
   Shared memory     :  Shared parallel matrices
   BLAS/LAPACK       :  OpenBLAS 0.3.29  USE64BITINT DYNAMIC_ARCH NO_AFFINITY Zen SINGLE_THREADED
        Core in use  :  Zen
   Copyright (c) 2011-2014, The OpenBLAS Project


  ***********************************
  * Starting time: Fri Apr 17 12:14:47 2026
  * Host name:     vmi3233575
  * Process ID:    339374
  * Working dir.:  /root/orca_b12_vps_pack/jobs/01_xtb/mult_3
  ***********************************

NOTE: MaxCore=500 MB was set to SCF,MP2,MDCI,CIPSI,MRCI,RASCI and CIS
      => If you want to overwrite this, your respective input block should be placed after the MaxCore statement


***************************************
The coordinates will be read from file: ../../../starts/random_d1.90_009.xyz
***************************************


Your calculation utilizes the semiempirical GFN2-xTB method
Please cite in your paper:
Bannwarth, C.; Ehlert S.; Grimme, S. J. Chem. Theory Comput. 2019, 15, 1652.
   

================================================================================

================================================================================
                                        WARNINGS
                       Please study these warnings very carefully!
================================================================================


WARNING: Geometry Optimization
  ===> : Switching off AutoStart
         For restart on a previous wavefunction, please use MOREAD

WARNING: Found dipole moment calculation with XTB calculation
  ===> : Switching off dipole moment calculation

Environment variable XTBEXE for xtb has been set!

================================================================================
                                       INPUT FILE
================================================================================
NAME = random_d1.90_009_m3.inp
|  1> ! GFN2-xTB TightSCF TightOpt
|  2> 
|  3> %pal
|  4>   nprocs 1
|  5> end
|  6> 
|  7> %maxcore 500
|  8> 
|  9> * xyzfile 0 3 ../../../starts/random_d1.90_009.xyz
| 10> 
| 11>                          ****END OF INPUT****
================================================================================

                       *****************************
                       * Geometry Optimization Run *
                       *****************************

Geometry optimization settings:
Update method            Update   .... BFGS
Choice of coordinates    CoordSys .... (2022) Redundant Internals
Initial Hessian          InHess   .... Almloef's Model
Max. no of cycles        MaxIter  .... 50

Convergence Tolerances:
Energy Change            TolE     ....  1.0000e-06 Eh
Max. Gradient            TolMAXG  ....  1.0000e-04 Eh/bohr
RMS Gradient             TolRMSG  ....  3.0000e-05 Eh/bohr
Max. Displacement        TolMAXD  ....  1.0000e-03 bohr
RMS Displacement         TolRMSD  ....  6.0000e-04 bohr
Strict Convergence                .... False

------------------------------------------------------------------------------
                        ORCA OPTIMIZATION COORDINATE SETUP
------------------------------------------------------------------------------

The optimization will be done in redundant internal coordinates (2022)
Making redundant internal coordinates   ...  (2022 redundants) done
Evaluating the initial hessian          ...  (Almloef) done
Evaluating the coordinates              ...  done
Calculating the B-matrix                .... done
Calculating the G-matrix                .... done
The number of degrees of freedom        ....  258

    -----------------------------------------------------------------
                    Redundant Internal Coordinates


    -----------------------------------------------------------------
         Definition                    Initial Value    Approx d2E/dq
    -----------------------------------------------------------------
      1. B(B   2,B   1)                  2.9368         0.010000   
      2. B(B   3,B   1)                  2.4548         0.016768   
      3. B(B   3,B   0)                  1.2940         1.192801   
      4. B(B   4,B   3)                  2.1736         0.047126   
      5. B(B   4,B   1)                  2.4852         0.014997   
      6. B(B   4,B   0)                  2.3522         0.024450   
      7. B(B   4,B   2)                  3.7655         0.010000   
      8. B(B   6,B   5)                  1.7661         0.210564   
      9. B(B   7,B   1)                  1.2678         1.313109   
     10. B(B   7,B   3)                  2.1772         0.046494   
     11. B(B   8,B   3)                  2.3141         0.028124   
     12. B(B   8,B   1)                  2.5887         0.010255   
     13. B(B   8,B   4)                  1.8280         0.167717   
     14. B(B   8,B   7)                  2.1551         0.050439   
     15. B(B   9,B   7)                  2.4234         0.018824   
     16. B(B  10,B   1)                  3.0243         0.010000   
     17. B(B  10,B   6)                  2.6670         0.010000   
     18. B(B  10,B   2)                  3.3225         0.010000   
     19. B(B  11,B   6)                  2.3948         0.020907   
     20. B(B  11,B   5)                  2.2989         0.029740   
     21. B(B  11,B   3)                  3.2515         0.010000   
     22. B(B  11,B   1)                  3.0640         0.010000   
     23. B(B  11,B   2)                  2.5294         0.012751   
     24. A(B   3,B   0,B   4)           65.9298         0.289861   
     25. A(B   3,B   1,B  11)           71.2229         0.131331   
     26. A(B   2,B   1,B  10)           67.7296         0.118307   
     27. A(B   3,B   1,B   8)           54.5435         0.151848   
     28. A(B   7,B   1,B  11)          107.7439         0.202580   
     29. A(B   2,B   1,B   4)           87.5574         0.134879   
     30. A(B   4,B   1,B   7)           93.4819         0.272777   
     31. A(B   3,B   1,B   7)           62.3019         0.277481   
     32. A(B   8,B   1,B  11)          125.0642         0.126873   
     33. A(B   2,B   1,B   3)          101.6529         0.136054   
     34. A(B   4,B   1,B  11)           98.5701         0.130275   
     35. A(B   2,B   1,B   7)          157.2684         0.215251   
     36. A(B   2,B   1,B   8)          129.6578         0.131097   
     37. A(B  10,B   1,B  11)           83.4319         0.115366   
     38. A(B   2,B   1,B  11)           49.8045         0.117355   
     39. A(B   7,B   1,B  10)          118.4614         0.206395   
     40. A(B   4,B   1,B   8)           42.1721         0.150279   
     41. A(B   7,B   1,B   8)           56.0643         0.257628   
     42. A(B   8,B   1,B  10)          151.4653         0.128145   
     43. A(B   3,B   1,B   4)           52.2014         0.157494   
     44. A(B   3,B   1,B  10)          152.5098         0.132753   
     45. A(B   4,B   1,B  10)          145.9505         0.131661   
     46. A(B   1,B   2,B  11)           67.7119         0.133226   
     47. A(B   4,B   2,B  11)           81.7209         0.111203   
     48. A(B   1,B   2,B   4)           41.2542         0.104824   
     49. A(B   1,B   2,B  10)           57.3877         0.111871   
     50. A(B  10,B   2,B  11)           86.5121         0.121092   
     51. A(B   4,B   2,B  10)           95.8706         0.100482   
     52. A(B   7,B   3,B   8)           57.2513         0.188473   
     53. A(B   4,B   3,B   7)           82.1163         0.200801   
     54. A(B   1,B   3,B  11)           63.1492         0.125221   
     55. A(B   7,B   3,B  11)           82.0866         0.134625   
     56. A(B   4,B   3,B  11)          100.3420         0.134765   
     57. A(B   0,B   3,B  11)           86.1999         0.184095   
     58. A(B   0,B   3,B   8)          118.7509         0.296327   
     59. A(B   0,B   3,B   7)          157.4711         0.321310   
     60. A(B   8,B   3,B  11)          128.0544         0.129719   
     61. A(B   0,B   3,B   4)           81.1438         0.322021   
     62. A(B   1,B   3,B   7)           31.0363         0.177486   
     63. A(B   1,B   3,B   4)           64.6188         0.177756   
     64. A(B   1,B   3,B   8)           65.6755         0.167970   
     65. A(B   0,B   3,B   1)          126.6556         0.273426   
     66. A(B   4,B   3,B   8)           47.9497         0.188778   
     67. A(B   0,B   4,B   3)           32.9264         0.185666   
     68. A(B   0,B   4,B   8)           96.9165         0.217842   
     69. A(B   0,B   4,B   1)           88.9428         0.163598   
     70. A(B   1,B   4,B   3)           63.1798         0.175542   
     71. A(B   1,B   4,B   8)           71.9412         0.204348   
     72. A(B   1,B   4,B   2)           51.1884         0.112034   
     73. A(B   0,B   4,B   2)           85.7885         0.114728   
     74. A(B   2,B   4,B   3)           85.3041         0.118848   
     75. A(B   2,B   4,B   8)          123.0569         0.128783   
     76. A(B   3,B   4,B   8)           70.0526         0.238471   
     77. A(B   6,B   5,B  11)           70.8123         0.230799   
     78. A(B  10,B   6,B  11)          106.2105         0.150899   
     79. A(B   5,B   6,B  10)          159.6733         0.193405   
     80. A(B   5,B   6,B  11)           65.0415         0.219927   
     81. A(B   1,B   7,B   3)           86.6617         0.326418   
     82. A(B   1,B   7,B   8)           94.7205         0.330835   
     83. A(B   3,B   7,B   9)          140.7243         0.179832   
     84. A(B   8,B   7,B   9)          139.6457         0.181522   
     85. A(B   1,B   7,B   9)          113.7366         0.282479   
     86. A(B   3,B   7,B   8)           64.5693         0.202534   
     87. A(B   1,B   8,B   7)           29.2152         0.169638   
     88. A(B   1,B   8,B   3)           59.7810         0.159652   
     89. A(B   1,B   8,B   4)           65.8867         0.194839   
     90. A(B   3,B   8,B   7)           58.1794         0.190324   
     91. A(B   4,B   8,B   7)           91.3135         0.240787   
     92. A(B   3,B   8,B   4)           61.9977         0.221990   
     93. A(B   1,B  10,B   2)           54.8827         0.110266   
     94. A(B   2,B  10,B   6)           71.1960         0.117621   
     95. A(B   1,B  10,B   6)           71.4440         0.125676   
     96. A(B   3,B  11,B   5)          127.8574         0.130237   
     97. A(B   1,B  11,B   5)          115.4128         0.137193   
     98. A(B   2,B  11,B   5)          123.6992         0.164168   
     99. A(B   1,B  11,B   3)           45.6279         0.110827   
    100. A(B   2,B  11,B   3)           92.0677         0.123044   
    101. A(B   1,B  11,B   2)           62.4835         0.128787   
    102. A(B   5,B  11,B   6)           44.1462         0.173068   
    103. A(B   3,B  11,B   6)          107.3540         0.127075   
    104. A(B   1,B  11,B   6)           74.1933         0.133498   
    105. A(B   2,B  11,B   6)           91.4507         0.158405   
    106. D(B  11,B   2,B   1,B   3)    -52.8055         0.010000   
    107. D(B  11,B   2,B   1,B   8)   -106.0516         0.010000   
    108. D(B   4,B   2,B   1,B   7)     93.1814         0.010000   
    109. D(B  11,B   2,B   1,B   4)   -103.3743         0.010000   
    110. D(B  11,B   2,B   1,B   7)    -10.1928         0.010000   
    111. D(B   4,B   2,B   1,B   3)     50.5687         0.010000   
    112. D(B   4,B   2,B   1,B  11)    103.3743         0.010000   
    113. D(B   4,B   2,B   1,B  10)   -156.0112         0.010000   
    114. D(B   4,B   2,B   1,B   8)     -2.6773         0.010000   
    115. D(B  11,B   3,B   0,B   4)   -101.0952         0.085928   
    116. D(B   4,B   3,B   1,B  10)   -141.3537         0.010000   
    117. D(B   0,B   3,B   1,B   8)    108.7595         0.010000   
    118. D(B   0,B   3,B   1,B   7)    175.1688         0.010000   
    119. D(B   4,B   3,B   1,B   7)    119.6036         0.010000   
    120. D(B   8,B   3,B   0,B   4)     30.8327         0.085928   
    121. D(B   0,B   3,B   1,B  10)    -85.7885         0.010000   
    122. D(B   7,B   3,B   0,B   4)    -42.4438         0.085928   
    123. D(B   0,B   3,B   1,B   2)    -22.0174         0.010000   
    124. D(B   4,B   3,B   1,B   2)    -77.5825         0.010000   
    125. D(B   4,B   3,B   1,B  11)   -117.5742         0.010000   
    126. D(B   0,B   3,B   1,B   4)     55.5652         0.010000   
    127. D(B   1,B   3,B   0,B   4)    -48.9512         0.085928   
    128. D(B   0,B   3,B   1,B  11)    -62.0090         0.010000   
    129. D(B   4,B   3,B   1,B   8)     53.1943         0.010000   
    130. D(B   8,B   4,B   1,B   2)   -176.9295         0.010000   
    131. D(B   8,B   4,B   1,B   7)     25.8094         0.010000   
    132. D(B   2,B   4,B   0,B   3)     87.8618         0.010000   
    133. D(B   0,B   4,B   3,B  11)     84.4556         0.010000   
    134. D(B   8,B   4,B   1,B  11)    134.3481         0.010000   
    135. D(B   8,B   4,B   1,B   3)     76.2762         0.010000   
    136. D(B   0,B   4,B   3,B   1)    137.9602         0.010000   
    137. D(B   8,B   4,B   0,B   3)    -34.9598         0.010000   
    138. D(B   8,B   4,B   3,B  11)   -132.7830         0.010000   
    139. D(B   3,B   4,B   2,B   1)    -59.0081         0.010000   
    140. D(B   0,B   4,B   2,B   1)    -92.0337         0.010000   
    141. D(B   8,B   4,B   3,B   7)    -52.3705         0.010000   
    142. D(B   8,B   4,B   3,B   1)    -79.2784         0.010000   
    143. D(B   8,B   4,B   2,B  10)    -16.6534         0.010000   
    144. D(B   8,B   4,B   3,B   0)    142.7614         0.010000   
    145. D(B   8,B   4,B   2,B  11)     68.9440         0.010000   
    146. D(B   3,B   4,B   2,B  11)      6.4524         0.010000   
    147. D(B   3,B   4,B   2,B  10)    -79.1451         0.010000   
    148. D(B   3,B   4,B   1,B   7)    -50.4667         0.010000   
    149. D(B   0,B   4,B   3,B   8)   -142.7614         0.010000   
    150. D(B   3,B   4,B   1,B   8)    -76.2762         0.010000   
    151. D(B   8,B   4,B   2,B   1)      3.4835         0.010000   
    152. D(B   3,B   4,B   1,B   2)    106.7943         0.010000   
    153. D(B   3,B   4,B   1,B  11)     58.0719         0.010000   
    154. D(B   3,B   4,B   1,B  10)    149.0122         0.010000   
    155. D(B   0,B   4,B   3,B   7)    164.8681         0.010000   
    156. D(B   1,B   4,B   0,B   3)     36.7062         0.010000   
    157. D(B   1,B   4,B   3,B   0)   -137.9602         0.010000   
    158. D(B   8,B   4,B   1,B  10)   -134.7116         0.010000   
    159. D(B  10,B   6,B   5,B  11)    -68.2858         0.010000   
    160. D(B   3,B   7,B   1,B   2)    -48.4954         0.127967   
    161. D(B   3,B   7,B   1,B   4)     43.4953         0.127967   
    162. D(B   3,B   7,B   1,B  11)    -56.6545         0.127967   
    163. D(B   8,B   7,B   1,B   3)    -64.1237         0.127967   
    164. D(B   8,B   7,B   1,B   4)    -20.6284         0.127967   
    165. D(B   3,B   7,B   1,B   8)     64.1237         0.127967   
    166. D(B   8,B   7,B   1,B   2)   -112.6191         0.127967   
    167. D(B   8,B   7,B   1,B  11)   -120.7782         0.127967   
    168. D(B   8,B   7,B   1,B  10)    147.1099         0.127967   
    169. D(B   8,B   7,B   3,B   1)     96.8352         0.010000   
    170. D(B   8,B   7,B   3,B   4)     44.3652         0.010000   
    171. D(B   8,B   7,B   3,B   0)     86.6784         0.010000   
    172. D(B   1,B   7,B   3,B  11)     49.1971         0.010000   
    173. D(B   1,B   7,B   3,B   8)    -96.8352         0.010000   
    174. D(B   1,B   7,B   3,B   4)    -52.4701         0.010000   
    175. D(B   8,B   7,B   3,B  11)    146.0324         0.010000   
    176. D(B   1,B   7,B   3,B   0)    -10.1568         0.010000   
    177. D(B   1,B   8,B   7,B   3)    -84.0327         0.010000   
    178. D(B   3,B   8,B   7,B   9)   -139.8337         0.010000   
    179. D(B   3,B   8,B   7,B   1)     84.0327         0.010000   
    180. D(B   4,B   8,B   7,B   9)    164.7026         0.010000   
    181. D(B   4,B   8,B   7,B   3)    -55.4637         0.010000   
    182. D(B   4,B   8,B   7,B   1)     28.5689         0.010000   
    183. D(B   7,B   8,B   4,B   1)    -14.8167         0.010000   
    184. D(B   7,B   8,B   4,B   0)     71.7951         0.010000   
    185. D(B   7,B   8,B   4,B   3)     52.4449         0.010000   
    186. D(B   3,B   8,B   4,B   1)    -67.2616         0.010000   
    187. D(B   3,B   8,B   4,B   0)     19.3501         0.010000   
    188. D(B   7,B   8,B   3,B  11)    -44.6522         0.010000   
    189. D(B   7,B   8,B   3,B   1)    -34.1796         0.010000   
    190. D(B   7,B   8,B   3,B   4)   -111.1325         0.010000   
    191. D(B   7,B   8,B   3,B   0)   -154.1325         0.010000   
    192. D(B   4,B   8,B   3,B  11)     66.4803         0.010000   
    193. D(B   4,B   8,B   3,B   1)     76.9529         0.010000   
    194. D(B   4,B   8,B   3,B   7)    111.1325         0.010000   
    195. D(B   3,B   8,B   4,B   2)    -70.1161         0.010000   
    196. D(B   4,B   8,B   3,B   0)    -43.0000         0.010000   
    197. D(B   3,B   8,B   1,B  11)     10.6940         0.010000   
    198. D(B   3,B   8,B   1,B   2)     74.4390         0.010000   
    199. D(B   7,B   8,B   4,B   2)    -17.6712         0.010000   
    200. D(B   3,B   8,B   1,B   4)     70.4530         0.010000   
    201. D(B   3,B   8,B   1,B   7)    -77.9597         0.010000   
    202. D(B   4,B   8,B   1,B  10)    123.5946         0.010000   
    203. D(B   4,B   8,B   1,B   7)   -148.4127         0.010000   
    204. D(B   4,B   8,B   1,B   2)      3.9860         0.010000   
    205. D(B   4,B   8,B   1,B   3)    -70.4530         0.010000   
    206. D(B   4,B   8,B   1,B  11)    -59.7590         0.010000   
    207. D(B   2,B  10,B   6,B  11)    -15.9114         0.010000   
    208. D(B   2,B  10,B   6,B   5)     45.3896         0.010000   
    209. D(B   1,B  10,B   6,B  11)     42.3052         0.010000   
    210. D(B   1,B  10,B   6,B   5)    103.6063         0.010000   
    211. D(B   1,B  10,B   2,B  11)    -65.6638         0.010000   
    212. D(B   1,B  10,B   2,B   4)     15.6344         0.010000   
    213. D(B   6,B  10,B   2,B  11)     14.4601         0.010000   
    214. D(B   6,B  10,B   2,B   4)     95.7584         0.010000   
    215. D(B   6,B  10,B   2,B   1)     80.1239         0.010000   
    216. D(B   2,B  10,B   1,B   3)     71.6889         0.010000   
    217. D(B   2,B  10,B   1,B   7)    155.7404         0.010000   
    218. D(B   6,B  10,B   1,B  11)    -30.5639         0.010000   
    219. D(B   6,B  10,B   1,B   2)    -79.6537         0.010000   
    220. D(B   6,B  10,B   1,B   8)    146.6735         0.010000   
    221. D(B   6,B  10,B   1,B   4)   -126.1605         0.010000   
    222. D(B   6,B  10,B   1,B   3)     -7.9649         0.010000   
    223. D(B   6,B  10,B   1,B   7)     76.0867         0.010000   
    224. D(B   3,B  11,B   1,B   8)     -9.1865         0.010000   
    225. D(B   3,B  11,B   1,B   4)    -45.0988         0.010000   
    226. D(B   3,B  11,B   1,B   7)     51.3727         0.010000   
    227. D(B   2,B  11,B   1,B  10)    -66.2883         0.010000   
    228. D(B   2,B  11,B   1,B   8)    115.3236         0.010000   
    229. D(B   2,B  11,B   1,B   4)     79.4113         0.010000   
    230. D(B   2,B  11,B   1,B   3)    124.5101         0.010000   
    231. D(B   3,B  11,B   1,B   2)   -124.5101         0.010000   
    232. D(B   2,B  11,B   1,B   7)    175.8828         0.010000   
    233. D(B   3,B  11,B   6,B  10)    -72.6830         0.010000   
    234. D(B   3,B  11,B   6,B   5)    126.9556         0.010000   
    235. D(B   1,B  11,B   6,B   5)    158.7518         0.010000   
    236. D(B   2,B  11,B   6,B  10)     19.9379         0.010000   
    237. D(B   2,B  11,B   6,B   5)   -140.4236         0.010000   
    238. D(B   3,B  11,B   5,B   6)    -75.0251         0.010000   
    239. D(B   1,B  11,B   5,B   6)    -22.7096         0.010000   
    240. D(B   2,B  11,B   5,B   6)     49.9554         0.010000   
    241. D(B   1,B  11,B   3,B   7)    -25.9405         0.010000   
    242. D(B   1,B  11,B   3,B   8)     10.6988         0.010000   
    243. D(B   1,B  11,B   3,B   4)     54.4963         0.010000   
    244. D(B   1,B  11,B   3,B   0)    134.7687         0.010000   
    245. D(B   2,B  11,B   3,B   1)    -46.9944         0.010000   
    246. D(B   2,B  11,B   3,B   7)    -72.9349         0.010000   
    247. D(B   2,B  11,B   3,B   8)    -36.2956         0.010000   
    248. D(B   2,B  11,B   3,B   4)      7.5019         0.010000   
    249. D(B   2,B  11,B   3,B   0)     87.7744         0.010000   
    250. D(B   5,B  11,B   2,B   4)   -143.9560         0.010000   
    251. D(B   5,B  11,B   2,B   1)   -103.5444         0.010000   
    252. D(B   3,B  11,B   2,B  10)     92.1583         0.010000   
    253. D(B   3,B  11,B   2,B   4)     -4.2966         0.010000   
    254. D(B   3,B  11,B   2,B   1)     36.1150         0.010000   
    255. D(B   1,B  11,B   6,B  10)    -40.8868         0.010000   
    256. D(B   1,B  11,B   2,B  10)     56.0432         0.010000   
    257. D(B   1,B  11,B   2,B   4)    -40.4116         0.010000   
    258. D(B   3,B  11,B   1,B  10)    169.2016         0.010000   
    -----------------------------------------------------------------

Number of atoms                         .... 12
Number of degrees of freedom            .... 258


         *************************************************************
         *                GEOMETRY OPTIMIZATION CYCLE   1            *
         *************************************************************
---------------------------------
CARTESIAN COORDINATES (ANGSTROEM)
---------------------------------
  B    -2.663487   -1.157534   -0.706821
  B    -0.027166    0.144881    0.980462
  B    -0.675577    2.635217   -0.434637
  B    -1.567539   -1.444363   -0.081514
  B    -2.461960   -0.126941    1.397934
  B     1.853511    0.540222   -3.145664
  B     2.176845    0.816009   -1.431493
  B     0.213481   -1.092022    1.120220
  B    -1.587442   -1.498585    2.231834
  B     2.576661   -1.626132    1.173223
  B     2.305210    2.069038    0.919366
  B    -0.142536    0.740211   -2.022910

----------------------------
CARTESIAN COORDINATES (A.U.)
----------------------------
  NO LB    ZA    FRAG    MASS        X           Y           Z
   0 B   5.0000    0    10.810   -5.033262   -2.187422   -1.335698
   1 B   5.0000    0    10.810   -0.051336    0.273785    1.852805
   2 B   5.0000    0    10.810   -1.276655    4.979839   -0.821345
   3 B   5.0000    0    10.810   -2.962220   -2.729451   -0.154038
   4 B   5.0000    0    10.810   -4.652429   -0.239884    2.641712
   5 B   5.0000    0    10.810    3.502628    1.020871   -5.944444
   6 B   5.0000    0    10.810    4.113641    1.542034   -2.705130
   7 B   5.0000    0    10.810    0.403420   -2.063623    2.116910
   8 B   5.0000    0    10.810   -2.999831   -2.831914    4.217555
   9 B   5.0000    0    10.810    4.869183   -3.072944    2.217070
  10 B   5.0000    0    10.810    4.356216    3.909915    1.737349
  11 B   5.0000    0    10.810   -0.269355    1.398796   -3.822746

      -----------------------------------------------------------      
     |                   =====================                   |     
     |                           x T B                           |     
     |                   =====================                   |     
     |                         S. Grimme                         |     
     |          Mulliken Center for Theoretical Chemistry        |     
     |                    University of Bonn                     |     
      -----------------------------------------------------------      

   * xtb version 6.6.1 (unknown) compiled by 'builduser@buildhost' on 2023-08-07

   xtb is free software: you can redistribute it and/or modify it under
   the terms of the GNU Lesser General Public License as published by
   the Free Software Foundation, either version 3 of the License, or
   (at your option) any later version.
   
   xtb is distributed in the hope that it will be useful,
   but WITHOUT ANY WARRANTY; without even the implied warranty of
   MERCHANTABILITY or FITNESS FOR A PARTICULAR PURPOSE.  See the
   GNU Lesser General Public License for more details.
   
   Cite this work as:
   * C. Bannwarth, E. Caldeweyher, S. Ehlert, A. Hansen, P. Pracht,
     J. Seibert, S. Spicher, S. Grimme, WIREs Comput. Mol. Sci., 2020, 11,
     e01493. DOI: 10.1002/wcms.1493
   
   for GFN2-xTB:
   * C. Bannwarth, S. Ehlert and S. Grimme., J. Chem. Theory Comput., 2019,
     15, 1652-1671. DOI: 10.1021/acs.jctc.8b01176
   for GFN1-xTB:
   * S. Grimme, C. Bannwarth, P. Shushkov, J. Chem. Theory Comput., 2017,
     13, 1989-2009. DOI: 10.1021/acs.jctc.7b00118
   for GFN0-xTB:
   * P. Pracht, E. Caldeweyher, S. Ehlert, S. Grimme, ChemRxiv, 2019, preprint.
     DOI: 10.26434/chemrxiv.8326202.v1
   for GFN-FF:
   * S. Spicher and S. Grimme, Angew. Chem. Int. Ed., 2020, 59, 15665-15673.
     DOI: 10.1002/anie.202004239
   
   for ALPB and GBSA implicit solvation:
   * S. Ehlert, M. Stahn, S. Spicher, S. Grimme, J. Chem. Theory Comput.,
     2021, 17, 4250-4261. DOI: 10.1021/acs.jctc.1c00471
   
   for DFT-D4:
   * E. Caldeweyher, C. Bannwarth and S. Grimme, J. Chem. Phys., 2017,
     147, 034112. DOI: 10.1063/1.4993215
   * E. Caldeweyher, S. Ehlert, A. Hansen, H. Neugebauer, S. Spicher,
     C. Bannwarth and S. Grimme, J. Chem. Phys., 2019, 150, 154122.
     DOI: 10.1063/1.5090222
   * E. Caldeweyher, J.-M. Mewes, S. Ehlert and S. Grimme, Phys. Chem. Chem. Phys.
     2020, 22, 8499-8512. DOI: 10.1039/D0CP00502A
   
   for sTDA-xTB:
   * S. Grimme and C. Bannwarth, J. Chem. Phys., 2016, 145, 054103.
     DOI: 10.1063/1.4959605
   
   in the mass-spec context:
   * V. Asgeirsson, C. Bauer and S. Grimme, Chem. Sci., 2017, 8, 4879.
     DOI: 10.1039/c7sc00601b
   * J. Koopman and S. Grimme, ACS Omega 2019, 4, 12, 15120-15133.
     DOI: 10.1021/acsomega.9b02011
   
   for metadynamics refer to:
   * S. Grimme, J. Chem. Theory Comput., 2019, 155, 2847-2862
     DOI: 10.1021/acs.jctc.9b00143
   
   for SPH calculations refer to:
   * S. Spicher and S. Grimme, J. Chem. Theory Comput., 2021, 17, 1701-1714
     DOI: 10.1021/acs.jctc.0c01306
   
   with help from (in alphabetical order)
   P. Atkinson, C. Bannwarth, F. Bohle, G. Brandenburg, E. Caldeweyher
   M. Checinski, S. Dohm, S. Ehlert, S. Ehrlich, I. Gerasimov, C. Hölzer
   A. Katbashev, J. Koopman, C. Lavigne, S. Lehtola, F. März, M. Müller,
   F. Musil, H. Neugebauer, J. Pisarek, C. Plett, P. Pracht, F. Pultar,
   J. Seibert, P. Shushkov, S. Spicher, M. Stahn, M. Steiner, T. Strunk,
   J. Stückrath, T. Rose, and J. Unsleber
   
 * started run on 2026/04/17 at 12:14:47.748     

           -------------------------------------------------
          |                Calculation Setup                |
           -------------------------------------------------

          program call               : /usr/bin/xtb random_d1.90_009_m3_XTB.xyz --grad -c 0 -u 2 -P 1 --namespace random_d1.90_009_m3 --input random_d1.90_009_m3_XTB.input.tmp --acc 0.200000
          calculation namespace      : random_d1.90_009_m3
          coordinate file            : random_d1.90_009_m3_XTB.xyz
          omp threads                :                     1

   ID    Z sym.   atoms
    1    5 B      1-12

molecular fragmentation (1/2 indicates fragments):
122112222222
# atoms in fragment 1/2:     3     9
 fragment masses (1/2) :       32.43       97.30
CMA distance (Bohr)    :   6.092
constraining FC (au)   :  0.0500

           -------------------------------------------------
          |                 G F N 2 - x T B                 |
           -------------------------------------------------

        Reference                      10.1021/acs.jctc.8b01176
      * Hamiltonian:
        H0-scaling (s, p, d)           1.850000    2.230000    2.230000
        zeta-weighting                 0.500000
      * Dispersion:
        s8                             2.700000
        a1                             0.520000
        a2                             5.000000
        s9                             5.000000
      * Repulsion:
        kExp                           1.500000    1.000000
        rExp                           1.000000
      * Coulomb:
        alpha                          2.000000
        third order                    shell-resolved
        anisotropic                    true
        a3                             3.000000
        a5                             4.000000
        cn-shift                       1.200000
        cn-exp                         4.000000
        max-rad                        5.000000


          ...................................................
          :                      SETUP                      :
          :.................................................:
          :  # basis functions                  48          :
          :  # atomic orbitals                  48          :
          :  # shells                           24          :
          :  # electrons                        36          :
          :  max. iterations                   250          :
          :  Hamiltonian                  GFN2-xTB          :
          :  restarted?                      false          :
          :  GBSA solvation                  false          :
          :  PC potential                    false          :
          :  electronic temp.          300.0000000     K    :
          :  accuracy                    0.2000000          :
          :  -> integral cutoff          0.3198970E+02      :
          :  -> integral neglect         0.2000000E-08      :
          :  -> SCF convergence          0.2000000E-06 Eh   :
          :  -> wf. convergence          0.2000000E-04 e    :
          :  Broyden damping             0.4000000          :
          ...................................................

 iter      E             dE          RMSdq      gap      omega  full diag
   1    -12.2042682 -0.122043E+02  0.202E+01    0.08       0.0  T
   2      7.8531815  0.200574E+02  0.256E+01    0.20       1.0  T
   3     20.3581513  0.125050E+02  0.265E+01    0.23       1.0  T
   4     -0.5903688 -0.209485E+02  0.191E+01    0.04       1.0  T
   5     -7.8110997 -0.722073E+01  0.149E+01    0.03       1.0  T
   6      2.2640006  0.100751E+02  0.212E+01    0.15       1.0  T
   7     -4.1181378 -0.638214E+01  0.170E+01    0.16       1.0  T
   8    -12.1443463 -0.802621E+01  0.104E+01    0.15       1.0  T
   9     -8.1805269  0.396382E+01  0.125E+01    0.29       1.0  T
  10    -10.2404769 -0.205995E+01  0.976E+00    0.11       1.0  T
  11    -10.4935908 -0.253114E+00  0.929E+00    0.16       1.0  T
  12    -10.5259825 -0.323917E-01  0.925E+00    0.17       1.0  T
  13    -10.4639784  0.620040E-01  0.926E+00    0.19       1.0  T
  14    -11.3098343 -0.845856E+00  0.829E+00    0.09       1.0  T
  15    -12.2598311 -0.949997E+00  0.698E+00    0.22       1.0  T
  16    -12.5808703 -0.321039E+00  0.628E+00    0.01       1.0  T
  17    -12.8309566 -0.250086E+00  0.710E+00    0.10       1.0  T
  18    -12.8806555 -0.496988E-01  0.683E+00    0.21       1.0  T
  19    -12.9089873 -0.283318E-01  0.652E+00    0.07       1.0  T
  20    -12.9542205 -0.452332E-01  0.630E+00    0.07       1.0  T
  21    -12.9600586 -0.583812E-02  0.615E+00    0.06       1.0  T
  22    -12.9004287  0.596299E-01  0.613E+00    0.12       1.0  T
  23    -13.0622749 -0.161846E+00  0.424E+00    0.05       1.0  T
  24    -13.1309019 -0.686270E-01  0.324E+00    0.04       1.0  T
  25    -13.1316218 -0.719834E-03  0.311E+00    0.04       1.0  T
  26    -13.1264913  0.513047E-02  0.316E+00    0.05       1.0  T
  27    -13.1550342 -0.285429E-01  0.290E+00    0.05       1.0  T
  28    -13.0340776  0.120957E+00  0.301E+00    0.05       1.0  T
  29    -13.0122864  0.217912E-01  0.316E+00    0.05       1.0  T
  30    -13.0251016 -0.128152E-01  0.307E+00    0.05       1.0  T
  31    -13.0264001 -0.129856E-02  0.304E+00    0.05       1.0  T
  32    -13.1085912 -0.821911E-01  0.218E+00    0.07       1.0  T
  33    -13.1288310 -0.202398E-01  0.189E+00    0.07       1.0  T
  34    -13.1629959 -0.341649E-01  0.144E+00    0.06       1.0  T
  35    -13.1860225 -0.230266E-01  0.111E+00    0.05       1.0  T
  36    -13.1968356 -0.108131E-01  0.937E-01    0.06       1.0  T
  37    -13.1971825 -0.346850E-03  0.917E-01    0.05       1.0  T
  38    -13.1968938  0.288630E-03  0.920E-01    0.06       1.0  T
  39    -13.1989076 -0.201377E-02  0.605E-01    0.05       1.0  T
  40    -13.1988937  0.139168E-04  0.594E-01    0.05       1.0  T
  41    -13.1981098  0.783841E-03  0.613E-01    0.05       1.0  T
  42    -13.1998504 -0.174054E-02  0.424E-01    0.05       1.0  T
  43    -13.1999983 -0.147932E-03  0.409E-01    0.05       1.0  T
  44    -13.2002190 -0.220651E-03  0.372E-01    0.05       1.0  T
  45    -13.2003029 -0.839331E-04  0.333E-01    0.05       1.0  T
  46    -13.2002050  0.979253E-04  0.313E-01    0.05       1.0  T
  47    -13.2000539  0.151008E-03  0.294E-01    0.05       1.0  T
  48    -13.2003928 -0.338894E-03  0.263E-01    0.05       1.0  T
  49    -13.2007669 -0.374086E-03  0.190E-01    0.05       1.0  T
  50    -13.2008428 -0.758270E-04  0.165E-01    0.05       1.0  T
  51    -13.2008772 -0.344299E-04  0.144E-01    0.05       1.0  T
  52    -13.2010764 -0.199188E-03  0.897E-02    0.05       1.0  T
  53    -13.2010603  0.160762E-04  0.701E-02    0.05       1.0  T
  54    -13.2010720 -0.117394E-04  0.484E-02    0.05       1.0  T
  55    -13.2010687  0.331250E-05  0.459E-02    0.05       1.0  T
  56    -13.2010824 -0.136493E-04  0.379E-02    0.05       1.0  T
  57    -13.2010983 -0.159356E-04  0.276E-02    0.05       1.0  T
  58    -13.2011052 -0.684200E-05  0.202E-02    0.05       1.4  T
  59    -13.2011096 -0.442693E-05  0.129E-02    0.05       2.2  T
  60    -13.2011098 -0.178726E-06  0.957E-03    0.05       3.0  T
  61    -13.2011098 -0.238336E-07  0.811E-03    0.05       3.6  T
  62    -13.2011103 -0.476930E-06  0.440E-03    0.05       6.6  T
  63    -13.2011104 -0.190764E-06  0.209E-03    0.05      13.8  T
  64    -13.2011105 -0.269501E-07  0.135E-03    0.05      21.4  T
  65    -13.2011105 -0.112955E-07  0.630E-04    0.05      45.8  T
  66    -13.2011105 -0.372201E-08  0.386E-04    0.05      74.9  T
  67    -13.2011105  0.303437E-10  0.392E-04    0.05      73.6  T
  68    -13.2011105 -0.141775E-08  0.228E-04    0.05     126.4  T
  69    -13.2011105 -0.996305E-10  0.190E-04    0.05     152.2  T
  70    -13.2011105 -0.523777E-10  0.149E-04    0.05     193.8  T

   *** convergence criteria satisfied after 70 iterations ***

         #    Occupation            Energy/Eh            Energy/eV
      -------------------------------------------------------------
         1        2.0000           -0.4242708             -11.5450
       ...           ...                  ...                  ...
        13        2.0000           -0.2762249              -7.5165
        14        2.0000           -0.2725415              -7.4162
        15        2.0000           -0.2637505              -7.1770
        16        1.9997           -0.2602292              -7.0812
        17        1.9125           -0.2548936              -6.9360
        18        1.0347           -0.2502877              -6.8107
        19        0.7555           -0.2483162              -6.7570 (HOMO)
        20        0.2977           -0.2464738              -6.7069 (LUMO)
        21        0.0000           -0.2349863              -6.3943
        22                         -0.2289868              -6.2310
        23                         -0.2267610              -6.1705
        24                         -0.2257694              -6.1435
       ...                                ...                  ...
        48                          2.3425280              63.7434
      -------------------------------------------------------------
                  HL-Gap            0.0018424 Eh            0.0501 eV
             Fermi-level           -0.2499794 Eh           -6.8023 eV

 transition dipole moment (au) for excitation:          18          19
     X       Y       Z   
  -0.5980   0.0813   0.5542  total (au/Debye):    0.819   2.083
 dE (eV)             :    0.054
 oscillator strength :  0.12481E-02

 SCC (total)                   0 d,  0 h,  0 min,  0.080 sec
 SCC setup                      ...        0 min,  0.000 sec (  0.173%)
 Dispersion                     ...        0 min,  0.000 sec (  0.100%)
 classical contributions        ...        0 min,  0.000 sec (  0.033%)
 integral evaluation            ...        0 min,  0.003 sec (  3.135%)
 iterations                     ...        0 min,  0.068 sec ( 84.841%)
 molecular gradient             ...        0 min,  0.005 sec (  6.645%)
 printout                       ...        0 min,  0.004 sec (  5.039%)

         :::::::::::::::::::::::::::::::::::::::::::::::::::::
         ::                     SUMMARY                     ::
         :::::::::::::::::::::::::::::::::::::::::::::::::::::
         :: total energy             -12.951497430754 Eh    ::
         :: gradient norm              0.695414018565 Eh/a0 ::
         :: HOMO-LUMO gap              0.050133035586 eV    ::
         ::.................................................::
         :: SCC energy               -13.201110491963 Eh    ::
         :: -> isotropic ES            0.054274411984 Eh    ::
         :: -> anisotropic ES         -0.000048238810 Eh    ::
         :: -> anisotropic XC         -0.037375230658 Eh    ::
         :: -> dispersion             -0.024756405164 Eh    ::
         :: repulsion energy           0.249374486976 Eh    ::
         :: add. restraining           0.000000000000 Eh    ::
         :: total charge              -0.000000000068 e     ::
         :::::::::::::::::::::::::::::::::::::::::::::::::::::


Property printout bound to 'properties.out'

           -------------------------------------------------
          | TOTAL ENERGY              -12.951497430754 Eh   |
          | GRADIENT NORM               0.695414018565 Eh/α |
          | HOMO-LUMO GAP               0.050133035586 eV   |
           -------------------------------------------------

------------------------------------------------------------------------
 * finished run on 2026/04/17 at 12:14:47.840     
------------------------------------------------------------------------
 total:
 * wall-time:     0 d,  0 h,  0 min,  0.092 sec
 *  cpu-time:     0 d,  0 h,  0 min,  0.092 sec
 * ratio c/w:     0.999 speedup
 SCF:
 * wall-time:     0 d,  0 h,  0 min,  0.080 sec
 *  cpu-time:     0 d,  0 h,  0 min,  0.080 sec
 * ratio c/w:     1.000 speedup


-------------------------   --------------------
FINAL SINGLE POINT ENERGY       -12.951497430750
-------------------------   --------------------


-------------
DIPOLE MOMENT
-------------
                                X             Y             Z
Total Dipole Moment    :     -1.68300      -1.06100      -1.41700
                        -----------------------------------------
Magnitude (a.u.)       :      2.44256
Magnitude (Debye)      :      6.20849


------------------
CARTESIAN GRADIENT
------------------

   1   B   :    0.199041589   -0.062258587    0.097379952
   2   B   :    0.094310530   -0.374133384    0.053951053
   3   B   :   -0.018848062    0.060618134    0.024823187
   4   B   :   -0.220319034    0.034696303   -0.141109317
   5   B   :   -0.054168634    0.075329155   -0.005546905
   6   B   :    0.035482869   -0.018717531   -0.126567861
   7   B   :    0.034227351   -0.005788195    0.055933396
   8   B   :   -0.080391848    0.379656555   -0.051343816
   9   B   :    0.003781449   -0.072694736    0.062419241
  10   B   :    0.048646453   -0.007900508    0.002731632
  11   B   :    0.017709456    0.031124755    0.047445898
  12   B   :   -0.059472119   -0.039931961   -0.020116460

Difference to translation invariance:
           :    0.0000000000   -0.0000000000   -0.0000000000

Difference to rotation invariance:
           :    0.0000000828    0.0000000240   -0.0000000256

Norm of the Cartesian gradient     ...    0.6954140186
RMS gradient                       ...    0.1159023364
MAX gradient                       ...    0.3796565554
------------------------------------------------------------------------------
                         ORCA GEOMETRY RELAXATION STEP
------------------------------------------------------------------------------

Reading the OPT-File                    .... done
Getting information on internals        .... done
Copying old internal coords+grads       .... done
Making the new internal coordinates     .... (2022 redundants) done
Validating the new internal coordinates .... (2022 redundants) done
Calculating the B-matrix                .... done
Calculating the G,G- and P matrices     .... done
Transforming gradient to internals      .... done
Projecting the internal gradient        .... done
Number of atoms                         ....  12
Number of internal coordinates          .... 258
Current Energy                          ....   -12.951497431 Eh
Current gradient norm                   ....     0.695414019 Eh/bohr
Maximum allowed component of the step   ....  0.300
Current trust radius                    ....  0.300
Evaluating the initial hessian          ....  (Almloef) done
Projecting the Hessian                  .... done
Forming the augmented Hessian           .... done
Diagonalizing the augmented Hessian     .... done
Last element of RFO vector              ....  0.825229723
Lowest eigenvalues of augmented Hessian:
 -0.203647977  0.013684137  0.014983429  0.017513344  0.019078234
Length of the computed step             ....  0.684412121
Warning: the length of the step is outside the trust region - taking restricted step instead
The input lambda is                     ....     0.010675
   iter:   5  x=    0.003055  g=48709.392263 f(x)=   153.868095
   iter:  10  x=   -0.084024  g=   87.374705 f(x)=     3.198844
   iter:  15  x=   -0.660886  g=    0.324854 f(x)=     0.041394
   iter:  20  x=   -0.708816  g=    0.171062 f(x)=     0.000000
The output lambda is                    ....    -0.708816 (20 iterations)
The final length of the internal step   ....  0.300000000
Converting the step to Cartesian space:
 Initial RMS(Int)=    0.0186771842
Transforming coordinates:
 Iter   0:  RMS(Cart)=    0.0450344350 RMS(Int)=    0.0186498187
done
Storing new coordinates                 .... done

                                .--------------------.
          ----------------------|Geometry convergence|-------------------------
          Item                value                   Tolerance       Converged
          ---------------------------------------------------------------------
          RMS gradient        0.0230118534            0.0000300000      NO
          MAX gradient        0.1920104161            0.0001000000      NO
          RMS step            0.0186771842            0.0006000000      NO
          MAX step            0.1331249090            0.0010000000      NO
          -------------------------------------------------------------------------
          ........................................................
          Max(Bonds)      0.0704      Max(Angles)    1.89
          Max(Dihed)        2.12      Max(Improp)    0.00
          ---------------------------------------------------------------------

The optimization has not yet converged - more geometry cycles are needed


    ---------------------------------------------------------------------------
                         Redundant Internal Coordinates
                            (Angstroem and degrees)

        Definition                    Value    dE/dq     Step     New-Value
    ----------------------------------------------------------------------------
     1. B(B   2,B   1)                2.9368  0.022926 -0.0141    2.9227   
     2. B(B   3,B   1)                2.4548 -0.006431 -0.0015    2.4534   
     3. B(B   3,B   0)                1.2940 -0.177955  0.0568    1.3508   
     4. B(B   4,B   3)                2.1736  0.024190 -0.0148    2.1587   
     5. B(B   4,B   1)                2.4852  0.021685 -0.0141    2.4711   
     6. B(B   4,B   0)                2.3522 -0.030119  0.0049    2.3571   
     7. B(B   4,B   2)                3.7655 -0.001942 -0.0007    3.7648   
     8. B(B   6,B   5)                1.7661  0.084132 -0.0497    1.7163   
     9. B(B   7,B   1)                1.2678 -0.192010  0.0704    1.3383   
    10. B(B   7,B   3)                2.1772  0.011194 -0.0093    2.1679   
    11. B(B   8,B   3)                2.3141  0.029327 -0.0170    2.2971   
    12. B(B   8,B   1)                2.5887 -0.020088  0.0012    2.5899   
    13. B(B   8,B   4)                1.8280  0.017619 -0.0186    1.8093   
    14. B(B   8,B   7)                2.1551  0.020203 -0.0135    2.1416   
    15. B(B   9,B   7)                2.4234  0.049239 -0.0358    2.3876   
    16. B(B  10,B   1)                3.0243  0.007105 -0.0069    3.0173   
    17. B(B  10,B   6)                2.6670  0.040462 -0.0308    2.6363   
    18. B(B  10,B   2)                3.3225  0.026816 -0.0157    3.3068   
    19. B(B  11,B   6)                2.3948  0.026801 -0.0195    2.3753   
    20. B(B  11,B   5)                2.2989  0.060218 -0.0416    2.2572   
    21. B(B  11,B   3)                3.2515 -0.014876  0.0046    3.2561   
    22. B(B  11,B   1)                3.0640  0.030312 -0.0183    3.0457   
    23. B(B  11,B   2)                2.5294  0.041266 -0.0317    2.4977   
    24. A(B   3,B   0,B   4)           65.93  0.031815   -1.24     64.69   
    25. A(B   3,B   1,B  11)           71.22 -0.008014    0.47     71.70   
    26. A(B   2,B   1,B  10)           67.73  0.002219   -0.10     67.63   
    27. A(B   3,B   1,B   8)           54.54  0.009956   -0.43     54.11   
    28. A(B   7,B   1,B  11)          107.74  0.000747    0.10    107.84   
    29. A(B   2,B   1,B   4)           87.56 -0.008955    0.55     88.11   
    30. A(B   4,B   1,B   7)           93.48  0.012591   -0.71     92.77   
    31. A(B   3,B   1,B   7)           62.30  0.011659   -0.55     61.75   
    32. A(B   8,B   1,B  11)          125.06  0.001623    0.03    125.09   
    33. A(B   2,B   1,B   3)          101.65 -0.006097    0.22    101.87   
    34. A(B   4,B   1,B  11)           98.57 -0.004575    0.33     98.90   
    35. A(B   2,B   1,B   7)          157.27  0.004995   -0.32    156.95   
    36. A(B   2,B   1,B   8)          129.66 -0.005047    0.22    129.87   
    37. A(B  10,B   1,B  11)           83.43  0.003990   -0.36     83.07   
    38. A(B   2,B   1,B  11)           49.80  0.003616   -0.38     49.43   
    39. A(B   7,B   1,B  10)          118.46 -0.006423    0.28    118.75   
    40. A(B   4,B   1,B   8)           42.17  0.004278   -0.36     41.81   
    41. A(B   7,B   1,B   8)           56.06  0.009186   -0.39     55.67   
    42. A(B   8,B   1,B  10)          151.47 -0.005312    0.32    151.79   
    43. A(B   3,B   1,B   4)           52.20  0.004095   -0.20     52.00   
    44. A(B   3,B   1,B  10)          152.51 -0.002443    0.00    152.51   
    45. A(B   4,B   1,B  10)          145.95 -0.006742    0.46    146.41   
    46. A(B   1,B   2,B  11)           67.71 -0.000837    0.14     67.85   
    47. A(B   4,B   2,B  11)           81.72  0.001539    0.03     81.75   
    48. A(B   1,B   2,B   4)           41.25  0.003954   -0.26     41.00   
    49. A(B   1,B   2,B  10)           57.39 -0.003312    0.16     57.54   
    50. A(B  10,B   2,B  11)           86.51 -0.000644   -0.02     86.49   
    51. A(B   4,B   2,B  10)           95.87 -0.000031   -0.05     95.82   
    52. A(B   7,B   3,B   8)           57.25 -0.000018   -0.01     57.24   
    53. A(B   4,B   3,B   7)           82.12 -0.023527    0.86     82.98   
    54. A(B   1,B   3,B  11)           63.15  0.009741   -0.52     62.63   
    55. A(B   7,B   3,B  11)           82.09 -0.021763    0.82     82.91   
    56. A(B   4,B   3,B  11)          100.34  0.006871   -0.30    100.04   
    57. A(B   0,B   3,B  11)           86.20  0.010251   -0.37     85.83   
    58. A(B   0,B   3,B   8)          118.75  0.004399   -0.21    118.54   
    59. A(B   0,B   3,B   7)          157.47 -0.021525    0.89    158.37   
    60. A(B   8,B   3,B  11)          128.05  0.001201   -0.22    127.83   
    61. A(B   0,B   3,B   4)           81.14  0.009924   -0.28     80.86   
    62. A(B   1,B   3,B   7)           31.04 -0.046179    1.89     32.93   
    63. A(B   1,B   3,B   4)           64.62  0.004013   -0.19     64.43   
    64. A(B   1,B   3,B   8)           65.68 -0.008235    0.30     65.98   
    65. A(B   0,B   3,B   1)          126.66  0.024320   -0.98    125.68   
    66. A(B   4,B   3,B   8)           47.95 -0.001140   -0.16     47.79   
    67. A(B   0,B   4,B   3)           32.93 -0.041739    1.52     34.45   
    68. A(B   0,B   4,B   8)           96.92 -0.034728    1.40     98.31   
    69. A(B   0,B   4,B   1)           88.94 -0.034242    1.29     90.23   
    70. A(B   1,B   4,B   3)           63.18 -0.008108    0.39     63.57   
    71. A(B   1,B   4,B   8)           71.94 -0.013751    0.66     72.60   
    72. A(B   1,B   4,B   2)           51.19  0.005000   -0.30     50.89   
    73. A(B   0,B   4,B   2)           85.79  0.003507   -0.29     85.50   
    74. A(B   2,B   4,B   3)           85.30 -0.003919    0.03     85.34   
    75. A(B   2,B   4,B   8)          123.06 -0.009118    0.38    123.44   
    76. A(B   3,B   4,B   8)           70.05  0.001591    0.06     70.11   
    77. A(B   6,B   5,B  11)           70.81 -0.017156    1.12     71.94   
    78. A(B  10,B   6,B  11)          106.21 -0.004167    0.35    106.56   
    79. A(B   5,B   6,B  10)          159.67  0.000633   -0.08    159.60   
    80. A(B   5,B   6,B  11)           65.04  0.004231   -0.39     64.65   
    81. A(B   1,B   7,B   3)           86.66  0.034520   -1.34     85.32   
    82. A(B   1,B   7,B   8)           94.72  0.034950   -1.44     93.28   
    83. A(B   3,B   7,B   9)          140.72 -0.002714    0.05    140.77   
    84. A(B   8,B   7,B   9)          139.65 -0.016138    0.68    140.32   
    85. A(B   1,B   7,B   9)          113.74 -0.025445    1.04    114.78   
    86. A(B   3,B   7,B   8)           64.57  0.003647   -0.15     64.42   
    87. A(B   1,B   8,B   7)           29.22 -0.044136    1.83     31.05   
    88. A(B   1,B   8,B   3)           59.78 -0.001721    0.13     59.91   
    89. A(B   1,B   8,B   4)           65.89  0.009473   -0.30     65.58   
    90. A(B   3,B   8,B   7)           58.18 -0.003629    0.16     58.34   
    91. A(B   4,B   8,B   7)           91.31 -0.029491    1.30     92.62   
    92. A(B   3,B   8,B   4)           62.00 -0.000451    0.10     62.09   
    93. A(B   1,B  10,B   2)           54.88  0.001093   -0.06     54.82   
    94. A(B   2,B  10,B   6)           71.20  0.003715   -0.30     70.90   
    95. A(B   1,B  10,B   6)           71.44  0.000431    0.00     71.45   
    96. A(B   3,B  11,B   5)          127.86  0.002715   -0.23    127.63   
    97. A(B   1,B  11,B   5)          115.41  0.010380   -0.64    114.77   
    98. A(B   2,B  11,B   5)          123.70  0.011160   -0.58    123.12   
    99. A(B   1,B  11,B   3)           45.63 -0.001727    0.05     45.67   
   100. A(B   2,B  11,B   3)           92.07 -0.005263    0.30     92.37   
   101. A(B   1,B  11,B   2)           62.48 -0.002778    0.24     62.72   
   102. A(B   5,B  11,B   6)           44.15  0.012925   -0.73     43.41   
   103. A(B   3,B  11,B   6)          107.35 -0.002933    0.08    107.43   
   104. A(B   1,B  11,B   6)           74.19 -0.001819    0.06     74.25   
   105. A(B   2,B  11,B   6)           91.45  0.001463   -0.01     91.44   
   106. D(B  11,B   2,B   1,B   3)    -52.81  0.002057   -0.14    -52.94   
   107. D(B  11,B   2,B   1,B   8)   -106.05 -0.007824    0.33   -105.72   
   108. D(B   4,B   2,B   1,B   7)     93.18  0.011668   -0.54     92.64   
   109. D(B  11,B   2,B   1,B   4)   -103.37 -0.000890   -0.04   -103.42   
   110. D(B  11,B   2,B   1,B   7)    -10.19  0.010778   -0.58    -10.78   
   111. D(B   4,B   2,B   1,B   3)     50.57  0.002947   -0.09     50.47   
   112. D(B   4,B   2,B   1,B  11)    103.37  0.000890    0.04    103.42   
   113. D(B   4,B   2,B   1,B  10)   -156.01  0.002439   -0.17   -156.18   
   114. D(B   4,B   2,B   1,B   8)     -2.68 -0.006934    0.37     -2.30   
   115. D(B  11,B   3,B   0,B   4)   -101.10 -0.004251    0.22   -100.88   
   116. D(B   4,B   3,B   1,B  10)   -141.35  0.010782   -0.70   -142.06   
   117. D(B   0,B   3,B   1,B   8)    108.76 -0.005099    0.15    108.91   
   118. D(B   0,B   3,B   1,B   7)    175.17 -0.002562    0.07    175.24   
   119. D(B   4,B   3,B   1,B   7)    119.60  0.002506   -0.29    119.31   
   120. D(B   8,B   3,B   0,B   4)     30.83  0.005926   -0.38     30.45   
   121. D(B   0,B   3,B   1,B  10)    -85.79  0.005714   -0.34    -86.13   
   122. D(B   7,B   3,B   0,B   4)    -42.44 -0.007637    0.28    -42.16   
   123. D(B   0,B   3,B   1,B   2)    -22.02  0.000087   -0.11    -22.12   
   124. D(B   4,B   3,B   1,B   2)    -77.58  0.005154   -0.47    -78.05   
   125. D(B   4,B   3,B   1,B  11)   -117.57  0.001615   -0.15   -117.73   
   126. D(B   0,B   3,B   1,B   4)     55.57 -0.005068    0.36     55.93   
   127. D(B   1,B   3,B   0,B   4)    -48.95  0.003579   -0.23    -49.18   
   128. D(B   0,B   3,B   1,B  11)    -62.01 -0.003452    0.21    -61.80   
   129. D(B   4,B   3,B   1,B   8)     53.19 -0.000031   -0.21     52.98   
   130. D(B   8,B   4,B   1,B   2)   -176.93  0.007925   -0.42   -177.35   
   131. D(B   8,B   4,B   1,B   7)     25.81  0.002977   -0.10     25.70   
   132. D(B   2,B   4,B   0,B   3)     87.86 -0.011951    0.48     88.34   
   133. D(B   0,B   4,B   3,B  11)     84.46  0.011345   -0.38     84.07   
   134. D(B   8,B   4,B   1,B  11)    134.35  0.005471   -0.10    134.25   
   135. D(B   8,B   4,B   1,B   3)     76.28  0.009597   -0.30     75.97   
   136. D(B   0,B   4,B   3,B   1)    137.96  0.020845   -0.92    137.04   
   137. D(B   8,B   4,B   0,B   3)    -34.96 -0.003431    0.13    -34.83   
   138. D(B   8,B   4,B   3,B  11)   -132.78  0.004851   -0.09   -132.87   
   139. D(B   3,B   4,B   2,B   1)    -59.01  0.005449   -0.38    -59.39   
   140. D(B   0,B   4,B   2,B   1)    -92.03  0.047427   -1.92    -93.96   
   141. D(B   8,B   4,B   3,B   7)    -52.37 -0.023665    0.99    -51.38   
   142. D(B   8,B   4,B   3,B   1)    -79.28  0.014352   -0.63    -79.91   
   143. D(B   8,B   4,B   2,B  10)    -16.65  0.007127   -0.34    -16.99   
   144. D(B   8,B   4,B   3,B   0)    142.76 -0.006493    0.29    143.05   
   145. D(B   8,B   4,B   2,B  11)     68.94  0.006653   -0.35     68.59   
   146. D(B   3,B   4,B   2,B  11)      6.45  0.003743   -0.29      6.16   
   147. D(B   3,B   4,B   2,B  10)    -79.15  0.004217   -0.28    -79.42   
   148. D(B   3,B   4,B   1,B   7)    -50.47 -0.006619    0.20    -50.27   
   149. D(B   0,B   4,B   3,B   8)   -142.76  0.006493   -0.29   -143.05   
   150. D(B   3,B   4,B   1,B   8)    -76.28 -0.009597    0.30    -75.97   
   151. D(B   8,B   4,B   2,B   1)      3.48  0.008359   -0.44      3.04   
   152. D(B   3,B   4,B   1,B   2)    106.79 -0.001672   -0.11    106.68   
   153. D(B   3,B   4,B   1,B  11)     58.07 -0.004125    0.21     58.28   
   154. D(B   3,B   4,B   1,B  10)    149.01 -0.004926    0.12    149.13   
   155. D(B   0,B   4,B   3,B   7)    164.87 -0.017171    0.70    165.57   
   156. D(B   1,B   4,B   0,B   3)     36.71 -0.019821    0.89     37.60   
   157. D(B   1,B   4,B   3,B   0)   -137.96 -0.020845    0.92   -137.04   
   158. D(B   8,B   4,B   1,B  10)   -134.71  0.004670   -0.18   -134.89   
   159. D(B  10,B   6,B   5,B  11)    -68.29  0.001597   -0.06    -68.34   
   160. D(B   3,B   7,B   1,B   2)    -48.50 -0.005218    0.27    -48.22   
   161. D(B   3,B   7,B   1,B   4)     43.50  0.002390   -0.03     43.46   
   162. D(B   3,B   7,B   1,B  11)    -56.65  0.002904   -0.15    -56.81   
   163. D(B   8,B   7,B   1,B   3)    -64.12 -0.004158    0.16    -63.96   
   164. D(B   8,B   7,B   1,B   4)    -20.63 -0.001769    0.13    -20.50   
   165. D(B   3,B   7,B   1,B   8)     64.12  0.004158   -0.16     63.96   
   166. D(B   8,B   7,B   1,B   2)   -112.62 -0.009376    0.43   -112.19   
   167. D(B   8,B   7,B   1,B  11)   -120.78 -0.001254    0.01   -120.77   
   168. D(B   8,B   7,B   1,B  10)    147.11 -0.004221    0.29    147.40   
   169. D(B   8,B   7,B   3,B   1)     96.84  0.021716   -0.93     95.90   
   170. D(B   8,B   7,B   3,B   4)     44.37  0.016849   -0.88     43.49   
   171. D(B   8,B   7,B   3,B   0)     86.68  0.028824   -1.31     85.37   
   172. D(B   1,B   7,B   3,B  11)     49.20  0.009882   -0.54     48.66   
   173. D(B   1,B   7,B   3,B   8)    -96.84 -0.021716    0.93    -95.90   
   174. D(B   1,B   7,B   3,B   4)    -52.47 -0.004867    0.06    -52.41   
   175. D(B   8,B   7,B   3,B  11)    146.03  0.031598   -1.47    144.56   
   176. D(B   1,B   7,B   3,B   0)    -10.16  0.007109   -0.37    -10.53   
   177. D(B   1,B   8,B   7,B   3)    -84.03 -0.021970    0.81    -83.22   
   178. D(B   3,B   8,B   7,B   9)   -139.83  0.010561   -0.33   -140.17   
   179. D(B   3,B   8,B   7,B   1)     84.03  0.021970   -0.81     83.22   
   180. D(B   4,B   8,B   7,B   9)    164.70 -0.009900    0.47    165.18   
   181. D(B   4,B   8,B   7,B   3)    -55.46 -0.020461    0.81    -54.66   
   182. D(B   4,B   8,B   7,B   1)     28.57  0.001510   -0.01     28.56   
   183. D(B   7,B   8,B   4,B   1)    -14.82  0.021265   -0.90    -15.72   
   184. D(B   7,B   8,B   4,B   0)     71.80 -0.005416    0.10     71.89   
   185. D(B   7,B   8,B   4,B   3)     52.44  0.015698   -0.65     51.79   
   186. D(B   3,B   8,B   4,B   1)    -67.26  0.005567   -0.24    -67.51   
   187. D(B   3,B   8,B   4,B   0)     19.35 -0.021114    0.75     20.10   
   188. D(B   7,B   8,B   3,B  11)    -44.65  0.048397   -2.10    -46.76   
   189. D(B   7,B   8,B   3,B   1)    -34.18  0.051355   -2.12    -36.29   
   190. D(B   7,B   8,B   3,B   4)   -111.13  0.038801   -1.64   -112.78   
   191. D(B   7,B   8,B   3,B   0)   -154.13  0.027142   -1.14   -155.27   
   192. D(B   4,B   8,B   3,B  11)     66.48  0.009596   -0.46     66.02   
   193. D(B   4,B   8,B   3,B   1)     76.95  0.012554   -0.47     76.48   
   194. D(B   4,B   8,B   3,B   7)    111.13 -0.038801    1.64    112.78   
   195. D(B   3,B   8,B   4,B   2)    -70.12 -0.001704    0.14    -69.97   
   196. D(B   4,B   8,B   3,B   0)    -43.00 -0.011659    0.51    -42.49   
   197. D(B   3,B   8,B   1,B  11)     10.69  0.001614    0.10     10.80   
   198. D(B   3,B   8,B   1,B   2)     74.44  0.005553   -0.31     74.13   
   199. D(B   7,B   8,B   4,B   2)    -17.67  0.013994   -0.51    -18.18   
   200. D(B   3,B   8,B   1,B   4)     70.45 -0.004423    0.22     70.67   
   201. D(B   3,B   8,B   1,B   7)    -77.96 -0.004910    0.28    -77.68   
   202. D(B   4,B   8,B   1,B  10)    123.59 -0.007272    0.40    123.99   
   203. D(B   4,B   8,B   1,B   7)   -148.41 -0.000487    0.06   -148.36   
   204. D(B   4,B   8,B   1,B   2)      3.99  0.009976   -0.53      3.46   
   205. D(B   4,B   8,B   1,B   3)    -70.45  0.004423   -0.22    -70.67   
   206. D(B   4,B   8,B   1,B  11)    -59.76  0.006037   -0.11    -59.87   
   207. D(B   2,B  10,B   6,B  11)    -15.91  0.000498    0.05    -15.86   
   208. D(B   2,B  10,B   6,B   5)     45.39  0.000720   -0.05     45.34   
   209. D(B   1,B  10,B   6,B  11)     42.31  0.000904    0.04     42.35   
   210. D(B   1,B  10,B   6,B   5)    103.61  0.001126   -0.06    103.54   
   211. D(B   1,B  10,B   2,B  11)    -65.66  0.001314   -0.22    -65.88   
   212. D(B   1,B  10,B   2,B   4)     15.63  0.002795   -0.19     15.44   
   213. D(B   6,B  10,B   2,B  11)     14.46 -0.000827   -0.01     14.45   
   214. D(B   6,B  10,B   2,B   4)     95.76  0.000654    0.02     95.78   
   215. D(B   6,B  10,B   2,B   1)     80.12 -0.002141    0.21     80.33   
   216. D(B   2,B  10,B   1,B   3)     71.69 -0.007325    0.33     72.02   
   217. D(B   2,B  10,B   1,B   7)    155.74  0.005361   -0.35    155.39   
   218. D(B   6,B  10,B   1,B  11)    -30.56 -0.001436    0.08    -30.48   
   219. D(B   6,B  10,B   1,B   2)    -79.65 -0.004096    0.36    -79.30   
   220. D(B   6,B  10,B   1,B   8)    146.67  0.009601   -0.34    146.33   
   221. D(B   6,B  10,B   1,B   4)   -126.16  0.001045    0.02   -126.14   
   222. D(B   6,B  10,B   1,B   3)     -7.96 -0.011421    0.68     -7.28   
   223. D(B   6,B  10,B   1,B   7)     76.09  0.001265    0.01     76.10   
   224. D(B   3,B  11,B   1,B   8)     -9.19 -0.002969   -0.01     -9.20   
   225. D(B   3,B  11,B   1,B   4)    -45.10 -0.003342    0.19    -44.91   
   226. D(B   3,B  11,B   1,B   7)     51.37  0.008678   -0.44     50.94   
   227. D(B   2,B  11,B   1,B  10)    -66.29 -0.000362   -0.10    -66.39   
   228. D(B   2,B  11,B   1,B   8)    115.32 -0.006491    0.13    115.46   
   229. D(B   2,B  11,B   1,B   4)     79.41 -0.006863    0.33     79.75   
   230. D(B   2,B  11,B   1,B   3)    124.51 -0.003522    0.15    124.66   
   231. D(B   3,B  11,B   1,B   2)   -124.51  0.003522   -0.15   -124.66   
   232. D(B   2,B  11,B   1,B   7)    175.88  0.005156   -0.29    175.59   
   233. D(B   3,B  11,B   6,B  10)    -72.68  0.003432   -0.26    -72.94   
   234. D(B   3,B  11,B   6,B   5)    126.96  0.002163   -0.14    126.82   
   235. D(B   1,B  11,B   6,B   5)    158.75  0.000756   -0.09    158.66   
   236. D(B   2,B  11,B   6,B  10)     19.94 -0.001743    0.06     20.00   
   237. D(B   2,B  11,B   6,B   5)   -140.42 -0.003013    0.18   -140.25   
   238. D(B   3,B  11,B   5,B   6)    -75.03 -0.005232    0.36    -74.66   
   239. D(B   1,B  11,B   5,B   6)    -22.71 -0.001034    0.03    -22.68   
   240. D(B   2,B  11,B   5,B   6)     49.96  0.004475   -0.20     49.76   
   241. D(B   1,B  11,B   3,B   7)    -25.94  0.035581   -1.43    -27.37   
   242. D(B   1,B  11,B   3,B   8)     10.70  0.001388    0.06     10.76   
   243. D(B   1,B  11,B   3,B   4)     54.50  0.005609   -0.32     54.18   
   244. D(B   1,B  11,B   3,B   0)    134.77  0.017081   -0.65    134.12   
   245. D(B   2,B  11,B   3,B   1)    -46.99 -0.000841   -0.04    -47.03   
   246. D(B   2,B  11,B   3,B   7)    -72.93  0.034740   -1.47    -74.40   
   247. D(B   2,B  11,B   3,B   8)    -36.30  0.000548    0.03    -36.27   
   248. D(B   2,B  11,B   3,B   4)      7.50  0.004769   -0.36      7.15   
   249. D(B   2,B  11,B   3,B   0)     87.77  0.016241   -0.68     87.09   
   250. D(B   5,B  11,B   2,B   4)   -143.96 -0.010794    0.72   -143.23   
   251. D(B   5,B  11,B   2,B   1)   -103.54 -0.007327    0.46   -103.08   
   252. D(B   3,B  11,B   2,B  10)     92.16 -0.003125    0.18     92.34   
   253. D(B   3,B  11,B   2,B   4)     -4.30 -0.003073    0.23     -4.07   
   254. D(B   3,B  11,B   2,B   1)     36.12  0.000395   -0.03     36.08   
   255. D(B   1,B  11,B   6,B  10)    -40.89  0.002026   -0.21    -41.09   
   256. D(B   1,B  11,B   2,B  10)     56.04 -0.003520    0.21     56.25   
   257. D(B   1,B  11,B   2,B   4)    -40.41 -0.003468    0.26    -40.15   
   258. D(B   3,B  11,B   1,B  10)    169.20  0.003160   -0.24    168.96   
    ----------------------------------------------------------------------------

Geometry step timings:
Preparation and reading OPT file:      0.000 s ( 0.427 %)
Internal coordinates            :      0.000 s ( 0.300 %)
B/P matrices and projection     :      0.005 s (17.878 %)
Hessian update/contruction      :      0.005 s (18.277 %)
Making the step                 :      0.014 s (54.174 %)
Converting the step to Cartesian:      0.000 s ( 1.690 %)
Storing new data                :      0.000 s ( 0.245 %)
Checking convergence            :      0.000 s ( 0.446 %)
Final printing                  :      0.002 s ( 6.563 %)
Total time                      :      0.025 s

Time for energy+gradient        :      0.104 s
Time for complete geometry iter :      0.131 s

         *************************************************************
         *                GEOMETRY OPTIMIZATION CYCLE   2            *
         *************************************************************
---------------------------------
CARTESIAN COORDINATES (ANGSTROEM)
---------------------------------
  B    -2.690374   -1.146812   -0.719615
  B    -0.023118    0.169368    0.971790
  B    -0.679511    2.625324   -0.470406
  B    -1.547299   -1.448537   -0.066308
  B    -2.439259   -0.132042    1.393352
  B     1.844294    0.559605   -3.089129
  B     2.164164    0.842969   -1.426763
  B     0.233232   -1.134384    1.130252
  B    -1.571644   -1.481451    2.230220
  B     2.552432   -1.699502    1.179021
  B     2.291181    2.103580    0.885104
  B    -0.134098    0.741882   -2.017517

----------------------------
CARTESIAN COORDINATES (A.U.)
----------------------------
  NO LB    ZA    FRAG    MASS        X           Y           Z
   0 B   5.0000    0    10.810   -5.084070   -2.167160   -1.359876
   1 B   5.0000    0    10.810   -0.043687    0.320060    1.836416
   2 B   5.0000    0    10.810   -1.284089    4.961144   -0.888939
   3 B   5.0000    0    10.810   -2.923971   -2.737338   -0.125304
   4 B   5.0000    0    10.810   -4.609532   -0.249524    2.633054
   5 B   5.0000    0    10.810    3.485211    1.057500   -5.837608
   6 B   5.0000    0    10.810    4.089678    1.592980   -2.696191
   7 B   5.0000    0    10.810    0.440744   -2.143676    2.135866
   8 B   5.0000    0    10.810   -2.969977   -2.799536    4.214506
   9 B   5.0000    0    10.810    4.823398   -3.211593    2.228026
  10 B   5.0000    0    10.810    4.329705    3.975190    1.672604
  11 B   5.0000    0    10.810   -0.253409    1.401954   -3.812555

      -----------------------------------------------------------      
     |                   =====================                   |     
     |                           x T B                           |     
     |                   =====================                   |     
     |                         S. Grimme                         |     
     |          Mulliken Center for Theoretical Chemistry        |     
     |                    University of Bonn                     |     
      -----------------------------------------------------------      

   * xtb version 6.6.1 (unknown) compiled by 'builduser@buildhost' on 2023-08-07

   xtb is free software: you can redistribute it and/or modify it under
   the terms of the GNU Lesser General Public License as published by
   the Free Software Foundation, either version 3 of the License, or
   (at your option) any later version.
   
   xtb is distributed in the hope that it will be useful,
   but WITHOUT ANY WARRANTY; without even the implied warranty of
   MERCHANTABILITY or FITNESS FOR A PARTICULAR PURPOSE.  See the
   GNU Lesser General Public License for more details.
   
   Cite this work as:
   * C. Bannwarth, E. Caldeweyher, S. Ehlert, A. Hansen, P. Pracht,
[...]
    72. A(B   1,B   4,B   2)           40.04 -0.001390    1.67     41.71   
    73. A(B   0,B   4,B   2)           34.22  0.002381   -2.58     31.65   
    74. A(B   2,B   4,B   3)           48.71  0.000354   -0.13     48.58   
    75. A(B   2,B   4,B   8)           91.96 -0.001776    2.02     93.99   
    76. A(B   3,B   4,B   8)           68.63 -0.001367    1.46     70.08   
    77. A(B   6,B   5,B  11)           95.07 -0.002799    2.78     97.85   
    78. A(B  10,B   6,B  11)           90.00  0.001166   -1.87     88.12   
    79. A(B   5,B   6,B  10)          132.21  0.002883   -3.07    129.14   
    80. A(B   5,B   6,B  11)           42.60  0.001745   -1.28     41.33   
    81. A(B   1,B   7,B   3)           65.59  0.000058    1.56     67.15   
    82. A(B   1,B   7,B   8)           57.00  0.000529    0.86     57.85   
    83. A(B   3,B   7,B   9)           81.56  0.027371   -3.78     77.78   
    84. A(B   8,B   7,B   9)          171.36  0.029680   -1.59    169.77   
    85. A(B   1,B   7,B   9)          115.70  0.024686   -1.59    114.11   
    86. A(B   3,B   7,B   8)           90.70 -0.000598    3.35     94.05   
    87. A(B   1,B   8,B   7)           72.46  0.000353   -0.86     71.60   
    88. A(B   1,B   8,B   3)           56.51  0.000696   -0.64     55.86   
    89. A(B   1,B   8,B   4)           78.00  0.000615   -1.20     76.80   
    90. A(B   3,B   8,B   7)           45.48  0.000406   -1.63     43.85   
    91. A(B   4,B   8,B   7)          117.05  0.001087   -2.44    114.61   
    92. A(B   3,B   8,B   4)           71.79  0.000655   -1.10     70.70   
    93. A(B   1,B  10,B   2)           62.58 -0.000456    0.21     62.79   
    94. A(B   2,B  10,B   6)           87.29 -0.001443    2.06     89.35   
    95. A(B   1,B  10,B   6)          149.64 -0.001859    2.15    151.79   
    96. A(B   3,B  11,B   5)          136.40  0.001142   -1.18    135.22   
    97. A(B   1,B  11,B   5)          105.31  0.001258   -1.56    103.75   
    98. A(B   2,B  11,B   5)          116.16 -0.000042   -0.14    116.01   
    99. A(B   1,B  11,B   3)           34.29 -0.000071    0.49     34.78   
   100. A(B   2,B  11,B   3)           30.67  0.000110    0.34     31.01   
   101. A(B   1,B  11,B   2)           15.43 -0.001739    1.75     17.18   
   102. A(B   5,B  11,B   6)           42.32  0.001054   -1.50     40.82   
   103. A(B   3,B  11,B   6)           96.20  0.000150    0.42     96.62   
   104. A(B   1,B  11,B   6)           63.20  0.000207   -0.03     63.17   
   105. A(B   2,B  11,B   6)           74.04 -0.001171    1.44     75.48   
   106. D(B  11,B   2,B   1,B   3)   -111.40 -0.000305   -0.56   -111.95   
   107. D(B  11,B   2,B   1,B   8)   -154.95  0.001568   -2.13   -157.08   
   108. D(B   4,B   2,B   1,B   7)     84.41  0.000291   -1.29     83.12   
   109. D(B  11,B   2,B   1,B   4)   -179.51  0.000829   -1.63   -181.15   
   110. D(B  11,B   2,B   1,B   7)    -95.10  0.001121   -2.92    -98.02   
   111. D(B   4,B   2,B   1,B   3)     68.12 -0.001134    1.08     69.19   
   112. D(B   4,B   2,B   1,B  11)    179.51 -0.000829    1.63    181.15   
   113. D(B   4,B   2,B   1,B  10)   -138.67  0.000272   -0.07   -138.74   
   114. D(B   4,B   2,B   1,B   8)     24.56  0.000739   -0.50     24.07   
   115. D(B  11,B   3,B   0,B   4)   -135.90  0.002347   -2.66   -138.56   
   116. D(B   4,B   3,B   1,B  10)   -133.21 -0.000292    0.65   -132.56   
   117. D(B   0,B   3,B   1,B   8)     93.83 -0.000469    1.28     95.11   
   118. D(B   0,B   3,B   1,B   7)    142.83 -0.000388    0.06    142.89   
   119. D(B   4,B   3,B   1,B   7)     98.47  0.000313   -0.94     97.54   
   120. D(B   8,B   3,B   0,B   4)    -12.21  0.001006   -1.42    -13.63   
   121. D(B   0,B   3,B   1,B  10)    -88.85 -0.000993    1.64    -87.21   
   122. D(B   7,B   3,B   0,B   4)    -18.30  0.001614   -1.94    -20.24   
   123. D(B   0,B   3,B   1,B   2)    -56.49 -0.002085    2.66    -53.83   
   124. D(B   4,B   3,B   1,B   2)   -100.85 -0.001385    1.67    -99.18   
   125. D(B   4,B   3,B   1,B  11)   -113.45  0.000202    0.51   -112.94   
   126. D(B   0,B   3,B   1,B   4)     44.36 -0.000701    0.99     45.35   
   127. D(B   1,B   3,B   0,B   4)    -59.87  0.000197   -0.11    -59.98   
   128. D(B   0,B   3,B   1,B  11)    -69.09 -0.000499    1.50    -67.59   
   129. D(B   4,B   3,B   1,B   8)     49.47  0.000232    0.28     49.76   
   130. D(B   8,B   4,B   1,B   2)    156.86 -0.000226    0.14    157.01   
   131. D(B   8,B   4,B   1,B   7)     40.27 -0.001001    1.38     41.66   
   132. D(B   2,B   4,B   0,B   3)     81.49 -0.000908    0.24     81.74   
   133. D(B   0,B   4,B   3,B  11)     39.52  0.002194   -2.83     36.68   
   134. D(B   8,B   4,B   1,B  11)    156.75 -0.000408    0.30    157.05   
   135. D(B   8,B   4,B   1,B   3)     89.16 -0.001489    1.42     90.58   
   136. D(B   0,B   4,B   3,B   1)    100.14  0.001484   -1.80     98.34   
   137. D(B   8,B   4,B   0,B   3)     18.91 -0.002164    2.38     21.28   
   138. D(B   8,B   4,B   3,B  11)   -121.36  0.000340   -0.70   -122.05   
   139. D(B   3,B   4,B   2,B   1)    -77.60 -0.000134    0.24    -77.36   
   140. D(B   0,B   4,B   2,B   1)   -141.86  0.001516   -2.89   -144.75   
   141. D(B   8,B   4,B   3,B   7)      3.98 -0.000265   -0.21      3.77   
   142. D(B   8,B   4,B   3,B   1)    -60.73 -0.000370    0.34    -60.40   
   143. D(B   8,B   4,B   2,B  10)    -49.45 -0.000829    0.61    -48.85   
   144. D(B   8,B   4,B   3,B   0)   -160.87 -0.001854    2.13   -158.74   
   145. D(B   8,B   4,B   2,B  11)    160.63 -0.001118    1.35    161.98   
   146. D(B   3,B   4,B   2,B  11)    101.66 -0.001198    1.50    103.16   
   147. D(B   3,B   4,B   2,B  10)   -108.43 -0.000908    0.76   -107.67   
   148. D(B   3,B   4,B   1,B   7)    -48.89  0.000489   -0.03    -48.92   
   149. D(B   0,B   4,B   3,B   8)    160.87  0.001854   -2.13    158.74   
   150. D(B   3,B   4,B   1,B   8)    -89.16  0.001489   -1.42    -90.58   
   151. D(B   8,B   4,B   2,B   1)    -18.63 -0.000055    0.09    -18.54   
   152. D(B   3,B   4,B   1,B   2)     67.70  0.001263   -1.27     66.43   
   153. D(B   3,B   4,B   1,B  11)     67.59  0.001081   -1.12     66.47   
   154. D(B   3,B   4,B   1,B  10)    126.96  0.001778   -1.97    125.00   
   155. D(B   0,B   4,B   3,B   7)    164.85  0.001589   -2.35    162.51   
   156. D(B   1,B   4,B   0,B   3)     56.41 -0.000950    0.98     57.39   
   157. D(B   1,B   4,B   3,B   0)   -100.14 -0.001484    1.80    -98.34   
   158. D(B   8,B   4,B   1,B  10)   -143.88  0.000288   -0.55   -144.42   
   159. D(B  10,B   6,B   5,B  11)      9.50  0.000403   -0.82      8.68   
   160. D(B   3,B   7,B   1,B   2)    -20.40 -0.002233    3.30    -17.11   
   161. D(B   3,B   7,B   1,B   4)     69.88 -0.000744    1.14     71.02   
   162. D(B   3,B   7,B   1,B  11)    -35.10 -0.000610    2.37    -32.73   
   163. D(B   8,B   7,B   1,B   3)   -108.11  0.001238   -2.82   -110.94   
   164. D(B   8,B   7,B   1,B   4)    -38.23  0.000494   -1.69    -39.92   
   165. D(B   3,B   7,B   1,B   8)    108.11 -0.001238    2.82    110.94   
   166. D(B   8,B   7,B   1,B   2)   -128.52 -0.000995    0.48   -128.04   
   167. D(B   8,B   7,B   1,B  11)   -143.21  0.000628   -0.45   -143.66   
   168. D(B   8,B   7,B   1,B  10)    146.42 -0.000953    0.37    146.79   
   169. D(B   8,B   7,B   3,B   1)     52.86  0.000978   -0.47     52.38   
   170. D(B   8,B   7,B   3,B   4)     -3.66  0.000201    0.04     -3.62   
   171. D(B   8,B   7,B   3,B   0)      8.70 -0.000877    1.23      9.93   
   172. D(B   1,B   7,B   3,B  11)     37.87 -0.000585   -1.05     36.82   
   173. D(B   1,B   7,B   3,B   8)    -52.86 -0.000978    0.47    -52.38   
   174. D(B   1,B   7,B   3,B   4)    -56.52 -0.000777    0.52    -56.00   
   175. D(B   8,B   7,B   3,B  11)     90.73  0.000393   -1.53     89.20   
   176. D(B   1,B   7,B   3,B   0)    -44.16 -0.001856    1.71    -42.45   
   177. D(B   1,B   8,B   7,B   3)    -59.94 -0.000733   -0.01    -59.95   
   178. D(B   3,B   8,B   7,B   9)     26.29  0.003506   -1.83     24.46   
   179. D(B   3,B   8,B   7,B   1)     59.94  0.000733    0.01     59.95   
   180. D(B   4,B   8,B   7,B   9)     32.38  0.003172   -2.13     30.25   
   181. D(B   4,B   8,B   7,B   3)      6.09 -0.000334   -0.47      5.62   
   182. D(B   4,B   8,B   7,B   1)     66.04  0.000399   -0.46     65.57   
   183. D(B   7,B   8,B   4,B   1)    -62.97 -0.000310    0.67    -62.30   
   184. D(B   7,B   8,B   4,B   0)    -18.35  0.001739   -1.65    -19.99   
   185. D(B   7,B   8,B   4,B   3)     -4.57  0.000235    0.28     -4.29   
   186. D(B   3,B   8,B   4,B   1)    -58.40 -0.000545    0.39    -58.01   
   187. D(B   3,B   8,B   4,B   0)    -13.78  0.001504   -1.92    -15.70   
   188. D(B   7,B   8,B   3,B  11)   -116.10  0.000730   -0.78   -116.89   
   189. D(B   7,B   8,B   3,B   1)    -98.27  0.000516   -0.41    -98.69   
   190. D(B   7,B   8,B   3,B   4)    174.29  0.000390    0.17    174.45   
   191. D(B   7,B   8,B   3,B   0)   -172.73 -0.000866    1.87   -170.85   
   192. D(B   4,B   8,B   3,B  11)     69.61  0.000341   -0.95     68.66   
   193. D(B   4,B   8,B   3,B   1)     87.44  0.000127   -0.58     86.86   
   194. D(B   4,B   8,B   3,B   7)   -174.29 -0.000390   -0.17   -174.45   
   195. D(B   3,B   8,B   4,B   2)    -43.75 -0.000855    0.75    -43.00   
   196. D(B   4,B   8,B   3,B   0)     12.99 -0.001255    1.71     14.69   
   197. D(B   3,B   8,B   1,B  11)     31.61 -0.000120    0.04     31.65   
   198. D(B   3,B   8,B   1,B   2)     41.80 -0.000790    0.55     42.36   
   199. D(B   7,B   8,B   4,B   2)    -48.32 -0.000620    1.03    -47.29   
   200. D(B   3,B   8,B   1,B   4)     75.97  0.000363   -0.50     75.47   
   201. D(B   3,B   8,B   1,B   7)    -47.73 -0.000400    1.67    -46.06   
   202. D(B   4,B   8,B   1,B  10)    108.76  0.000429    0.07    108.83   
   203. D(B   4,B   8,B   1,B   7)   -123.69 -0.000762    2.17   -121.53   
   204. D(B   4,B   8,B   1,B   2)    -34.16 -0.001153    1.05    -33.11   
   205. D(B   4,B   8,B   1,B   3)    -75.97 -0.000363    0.50    -75.47   
   206. D(B   4,B   8,B   1,B  11)    -44.36 -0.000483    0.54    -43.82   
   207. D(B   2,B  10,B   6,B  11)    -10.05  0.000973   -0.88    -10.92   
   208. D(B   2,B  10,B   6,B   5)    -16.47  0.000488   -0.08    -16.54   
   209. D(B   1,B  10,B   6,B  11)     -3.20  0.000183   -0.67     -3.87   
   210. D(B   1,B  10,B   6,B   5)     -9.62 -0.000301    0.13     -9.49   
   211. D(B   1,B  10,B   2,B  11)   -160.64 -0.001498    1.34   -159.31   
   212. D(B   1,B  10,B   2,B   4)     28.79  0.000046    0.11     28.90   
   213. D(B   6,B  10,B   2,B  11)     15.47 -0.001282    1.64     17.11   
   214. D(B   6,B  10,B   2,B   4)   -155.10  0.000262    0.41   -154.69   
   215. D(B   6,B  10,B   2,B   1)    176.11  0.000216    0.30    176.41   
   216. D(B   2,B  10,B   1,B   3)     33.29 -0.000458    0.36     33.65   
   217. D(B   2,B  10,B   1,B   7)    104.10  0.000558   -1.17    102.93   
   218. D(B   6,B  10,B   1,B  11)      2.66 -0.000180    0.75      3.40   
   219. D(B   6,B  10,B   1,B   2)     -7.71  0.000868    0.01     -7.70   
   220. D(B   6,B  10,B   1,B   8)   -160.37 -0.000693    0.99   -159.38   
   221. D(B   6,B  10,B   1,B   4)    -77.04 -0.000590    1.73    -75.32   
   222. D(B   6,B  10,B   1,B   3)     25.58  0.000410    0.37     25.95   
   223. D(B   6,B  10,B   1,B   7)     96.39  0.001425   -1.16     95.23   
   224. D(B   3,B  11,B   1,B   8)    -31.79  0.000572   -0.51    -32.29   
   225. D(B   3,B  11,B   1,B   4)    -64.35  0.000351   -0.42    -64.76   
   226. D(B   3,B  11,B   1,B   7)     26.74  0.000050   -1.60     25.14   
   227. D(B   2,B  11,B   1,B  10)   -133.27  0.000620   -1.47   -134.74   
   228. D(B   2,B  11,B   1,B   8)     33.07  0.001082   -1.70     31.37   
   229. D(B   2,B  11,B   1,B   4)      0.50  0.000862   -1.61     -1.10   
   230. D(B   2,B  11,B   1,B   3)     64.85  0.000511   -1.19     63.66   
   231. D(B   3,B  11,B   1,B   2)    -64.85 -0.000511    1.19    -63.66   
   232. D(B   2,B  11,B   1,B   7)     91.59  0.000560   -2.79     88.80   
   233. D(B   3,B  11,B   6,B  10)     -8.71  0.000079    0.01     -8.70   
   234. D(B   3,B  11,B   6,B   5)    164.26  0.000104   -0.11    164.15   
   235. D(B   1,B  11,B   6,B   5)    173.86  0.000037    0.06    173.91   
   236. D(B   2,B  11,B   6,B  10)     12.70 -0.001122    1.32     14.02   
   237. D(B   2,B  11,B   6,B   5)   -174.32 -0.001096    1.20   -173.12   
   238. D(B   3,B  11,B   5,B   6)    -23.01 -0.000345    0.51    -22.51   
   239. D(B   1,B  11,B   5,B   6)     -5.68 -0.000010    0.14     -5.54   
   240. D(B   2,B  11,B   5,B   6)      6.08 -0.001213    1.52      7.60   
   241. D(B   1,B  11,B   3,B   7)    -36.28  0.000084    1.88    -34.40   
   242. D(B   1,B  11,B   3,B   8)     13.76  0.000156   -0.02     13.73   
   243. D(B   1,B  11,B   3,B   4)     50.80  0.000861   -0.60     50.19   
   244. D(B   1,B  11,B   3,B   0)     79.16  0.002176   -1.94     77.22   
   245. D(B   2,B  11,B   3,B   1)    -28.18  0.003346   -2.80    -30.98   
   246. D(B   2,B  11,B   3,B   7)    -64.46  0.003431   -0.92    -65.38   
   247. D(B   2,B  11,B   3,B   8)    -14.42  0.003503   -2.83    -17.25   
   248. D(B   2,B  11,B   3,B   4)     22.62  0.004208   -3.41     19.21   
   249. D(B   2,B  11,B   3,B   0)     50.99  0.005522   -4.74     46.24   
   250. D(B   5,B  11,B   2,B   4)    133.46  0.001540   -2.37    131.10   
   251. D(B   5,B  11,B   2,B   1)    -47.66 -0.000200    0.35    -47.32   
   252. D(B   3,B  11,B   2,B  10)    123.81  0.004142   -3.44    120.38   
   253. D(B   3,B  11,B   2,B   4)    -87.64  0.004108   -3.85    -91.49   
   254. D(B   3,B  11,B   2,B   1)     91.23  0.002369   -1.13     90.10   
   255. D(B   1,B  11,B   6,B  10)      0.88  0.000012    0.18      1.06   
   256. D(B   1,B  11,B   2,B  10)     32.58  0.001773   -2.30     30.28   
   257. D(B   1,B  11,B   2,B   4)   -178.87  0.001739   -2.71   -181.59   
   258. D(B   3,B  11,B   1,B  10)    161.88  0.000109   -0.28    161.60   
    ----------------------------------------------------------------------------

Geometry step timings:
Preparation and reading OPT file:      0.000 s ( 0.143 %)
Internal coordinates            :      0.000 s ( 0.272 %)
B/P matrices and projection     :      0.006 s (21.126 %)
Hessian update/contruction      :      0.004 s (14.085 %)
Making the step                 :      0.016 s (55.619 %)
Converting the step to Cartesian:      0.000 s ( 1.631 %)
Storing new data                :      0.000 s ( 0.296 %)
Checking convergence            :      0.000 s ( 0.439 %)
Final printing                  :      0.002 s ( 6.389 %)
Total time                      :      0.029 s

Time for energy+gradient        :      0.064 s
Time for complete geometry iter :      0.095 s




    ----------------------------------------------------------------------------
                                  WARNING !!!
       The optimization did not converge but reached the maximum number of
       optimization cycles.
       Please check your results very carefully.
    ----------------------------------------------------------------------------



--------------------------------
SUGGESTED CITATIONS FOR THIS RUN
--------------------------------

Below you find a list of papers that are relevant to this ORCA run
We neither can nor want to force you to cite these papers, but we appreciate if you do
You receive ORCA, which is the product of decades of hard work by many enthusiastic individuals, for free
The only thing we kindly ask in return is that you cite our papers,
We deeply appreciate it, if you show your appreciation for ORCA by not just citing the generic ORCA reference.

Please note that relegating all ORCA citations to the supporting information does *not* help us.
SI sections are not indexed - citations you put there will not count into any citation statistics
But we need these citations in order to attract the funding resources that allow us to do what we are doing

Therefore, if you are a happy ORCA user, please consider citing a few of the papers listed below in the main body of your paper

In addition to the list printed below, the program has created the file random_d1.90_009_m3.bibtex that contains the list in bibtex format
You can import this file easily into all common literature databanks and citation aid programs

It goes without saying that in many instances, there are alternative algorithms to achieve similar
results as the ones you have gotten from ORCA. It is, of course, also the case that in some instances
ORCA just re-implements algorithms worked out by others. We are fully aware of that and we are also
fully appreciative of our colleagues work. Hence this citation list should not be read as indicating
that the listed papers, which are focused on our own work, are the only ones worth citing. It simply
meant to make it easier for users to cite ORCA specific papers. It is not a substitute for doing your
own literature research and citing the relevant literature in a scientifically appropriate manner.

List of essential papers. We consider these as the minimum necessary citations

  1. Bannwarth, C.; Ehlert, S.; Grimme, S.
     GFN2-xTB—An Accurate and Broadly Parametrized Self-Consistent Tight-Binding Quantum Chemical Method with Multipole Electrostatics and Density-Dependent Dispersion Contributions
     J. Chem. Theory Comput. 2019 15(3), 1652-1671
     doi.org/10.1021/acs.jctc.8b01176
  2. Neese, F.
     Software update: the ORCA program system, version 6.0
     WIRES Comput. Molec. Sci. 2025 15(1), e70019
     doi.org/10.1002/wcms.70019

List of papers to cite with high priority. The work reported in these papers was absolutely
necessary for this run to complete.
Our perspective: the developers of density functionals and basis sets usually get cited in chemistry papers
Good! But without the algorithms to do something with them, the functionals or basis sets would not do anything.
Hence, in our opinion, the algorithm design and method developments papers are equally worthy of getting cited

  1. Bannwarth, C.; Caldeweyher, E.; Ehlert, S.; Hansen, A.; Pracht, P.; Seibert, J.; Spicher, S.; Grimme, S.
     Extended tight-binding quantum chemistry methods
     WIRES Comput. Molec. Sci. 2020 11(2), e1493
     doi.org/10.1002/wcms.1493

List of suggested additional citations. These are papers that are important in the 'surrounding' of 
of this run, or papers that preceded the highly important papers. If you like your results we are grateful for a citation.

  1. Neese, F.
     The ORCA program system
     WIRES Comput. Molec. Sci. 2012 2(1), 73-78
     doi.org/10.1002/wcms.81
  2. Neese, F.
     Software update: the ORCA program system, version 4.0
     WIRES Comput. Molec. Sci. 2018 8(1), 1-6
     doi.org/10.1002/wcms.1327
  3. Neese, F.; Wennmohs, F.; Becker, U.; Riplinger, C.
     The ORCA quantum chemistry program package
     J. Chem. Phys. 2020 152(22), 224108
     doi.org/10.1063/5.0004608
  4. Neese, F.
     Software update: The ORCA program system—Version 5.0
     WIRES Comput. Molec. Sci. 2022 12(1), e1606
     doi.org/10.1002/wcms.1606

List of optional additional citations

  1. Neese, F.
     Approximate second-order SCF convergence for spin unrestricted wavefunctions
     Chem. Phys. Lett. 2000 325(1-3), 93-98
     doi.org/10.1016/s0009-2614(00)00662-x

Timings for individual modules:

Sum of individual times          ...        4.259 sec (=   0.071 min)
Geometry relaxation              ...        1.283 sec (=   0.021 min)  30.1 %
XTB module                       ...        2.977 sec (=   0.050 min)  69.9 %
                             ****ORCA TERMINATED NORMALLY****
TOTAL RUN TIME: 0 days 0 hours 0 minutes 4 seconds 757 msec
