
                                 *****************
                                 * O   R   C   A *
                                 *****************

                                            #,                                       
                                            ###                                      
                                            ####                                     
                                            #####                                    
                                            ######                                   
                                           ########,                                 
                                     ,,################,,,,,                         
                               ,,#################################,,                 
                          ,,##########################################,,             
                       ,#########################################, ''#####,          
                    ,#############################################,,   '####,        
                  ,##################################################,,,,####,       
                ,###########''''           ''''###############################       
              ,#####''   ,,,,##########,,,,          '''####'''          '####       
            ,##' ,,,,###########################,,,                        '##       
           ' ,,###''''                  '''############,,,                           
         ,,##''                                '''############,,,,        ,,,,,,###''
      ,#''                                            '''#######################'''  
     '                                                          ''''####''''         
             ,#######,   #######,   ,#######,      ##                                
            ,#'     '#,  ##    ##  ,#'     '#,    #''#        ,####,    ,#,          
            ##       ##  ##   ,#'  ##            #'  '#       #'       ,# #          
            ##       ##  #######   ##           ,######,      #####,      #          
            '#,     ,#'  ##    ##  '#,     ,#' ,#      #,     #,   #      #          
             '#######'   ##     ##  '#######'  #'      '#     '####' #    #          



                #########################################################
                #                        -***-                          #
                #          Department of theory and spectroscopy        #
                #                                                       #
                #                      Frank Neese                      #
                #                                                       #
                #     Directorship, Architecture, Infrastructure        #
                #                    SHARK, DRIVERS                     #
                #        Core code/Algorithms in most modules           #
                #                                                       #
                #        Max Planck Institute fuer Kohlenforschung      #
                #                Kaiser Wilhelm Platz 1                 #
                #                 D-45470 Muelheim/Ruhr                 #
                #                      Germany                          #
                #                                                       #
                #                  All rights reserved                  #
                #                        -***-                          #
                #########################################################


                         Program Version 6.1.1  -  RELEASE   -
                                (GIT: $487d211c$)
                          ($2025-11-21 10:33:24 +0100$)
                                                                         
                                  - NO-DMRG VERSION -                    
                                                                         


 With contributions from (in alphabetic order):
[Max-Planck-Institut fuer Kohlenforschung]                               
  Daniel Aravena         : Magnetic Suceptibility                        
  Michael Atanasov       : Ab Initio Ligand Field Theory (pilot matlab implementation)
  Alexander A. Auer      : GIAO ZORA, VPT2 properties, NMR spectrum      
  Ute Becker             : All parallelization in ORCA, NUMFREQ, NUMCALC 
  Giovanni Bistoni       : ED, misc. LED, open-shell LED, HFLD           
  Dmytro Bykov           : pre 5.0 version of the SCF Hessian            
  Marcos Casanova-Páez   : Triplet and SCS-CIS(D). UHF-(DLPNO)-IP/EA/STEOM-CCSD. UHF-CVS-IP/STEOM-CCSD   
  Vijay G. Chilkuri      : MRCI spin determinant printing, contributions to CSF-ICE 
  Pauline Colinet        : FMM embedding                                 
  Dipayan Datta          : RHF DLPNO-CCSD density                        
  Achintya Kumar Dutta   : EOM-CC, STEOM-CC                              
  Nicolas Foglia         : Exact transition moments, OPA infrastructure, MCD improvements    
  Dmitry Ganyushin       : Spin-Orbit,Spin-Spin,Magnetic field MRCI      
  Miquel Garcia-Rates    : C-PCM and meta-GGA Hessian, CCSD/C-PCM, Gaussian charge scheme 
  Tiago L. C. Gouveia    : GS-ROHF, GS-ROCIS                             
  Yang Guo               : DLPNO-NEVPT2, F12-NEVPT2, CIM, IAO-localization        
  Andreas Hansen         : Spin unrestricted coupled pair/coupled cluster methods 
  Ingolf Harden          : AUTO-CI MPn and infrastructure                
  Benjamin Helmich-Paris : MC-RPA, TRAH-(SCF,CASSCF), AVAS, COSX integrals, SCF dyn. polar., MC-PDFT, srDFT 
  Lee Huntington         : MR-EOM, pCC                                   
  Robert Izsak           : Overlap fitted RIJCOSX, COSX-SCS-MP3, EOM     
  Riya Kayal             : Wick's Theorem for AUTO-CI, AUTO-CI UHF-CCSDT 
  Emily Kempfer          : AUTO-CI RHF CISDT and CCSDT, approximate NEVPT4
  Christian Kollmar      : KDIIS, OOCD, Brueckner-CCSD(T), CCSD density, CASPT2, CASPT2-K, improved NEVPT2 
  Axel Koslowski         : Symmetry handling                             
  Simone Kossmann        : meta-GGA functionals, TD-DFT gradient, OOMP2, (MP2 Hessian; deprecated post 5.0) 
  Lucas Lang             : DCDCAS, Hyperfine gauge corrections, ICE-SOC+SSC
  Marvin Lechner         : AUTO-CI (C++ implementation), FIC-MRCC        
  Spencer Leger          : CASSCF response                               
  Dagmar Lenk            : GEPOL surface, SMD, ORCA-2-JSON               
  Dimitrios Liakos       : Extrapolation schemes; Compound Job, Property file
  Dimitrios Manganas     : Further ROCIS development; embedding schemes. LFT, Crystal Embedding 
  Dimitrios Pantazis     : SARC Basis sets                               
  Anastasios Papadopoulos: AUTO-CI, single reference methods and gradients 
  Taras Petrenko         : pre 6.0 DFT Hessian and TD-DFT gradient,  ECA, NRVS 
  Petra Pikulova         : Analytic Raman intensities                    
  Peter Pinski           : DLPNO-MP2, DLPNO-MP2 Gradient                 
  Shashank Vittal Rao    : ES-AILFT, MagRelax                            
  Christoph Reimann      : Effective Core Potentials                     
  Marius Retegan         : Local ZFS, SOC                                
  Christoph Riplinger    : Optimizer, TS searches, QM/MM, DLPNO-CCSD(T), (RO)-DLPNO pert. Triples 
  Michael Roemelt        : Original ROCIS implementation, recursive CI coupling coefficients
  Masaaki Saitow         : Open-shell DLPNO-CCSD energy and density      
  Barbara Sandhoefer     : DKH picture change effects                    
  Yorick L. A. Schmerwitz: GMF and freeze-and-release deltaSCF, NEB S-IDPP initial path                    
  Kantharuban Sivalingam : CASSCF convergence/infrastructure, NEVPT2, NEVPT3, NEVPT4(SD), FIC-MRCI and CEPA variants
  Bernardo de Souza      : ESD, SOC TD-DFT                               
  Georgi L. Stoychev     : AutoAux, RI-MP2 NMR, DLPNO-MP2 response, X2C  
  Van Anh Tran           : RI-MP2 g-tensors                              
  Willem Van den Heuvel  : Paramagnetic NMR                              
  Zikuan Wang            : NOTCH, Electric field optimization            
  Frank Wennmohs         : Technical directorship and infrastructure     
  Hang Xu                : AUTO-CI-Response properties                   
                                                                         
[FACCTs GmbH]                                                            
  Markus Bursch, Nicolas Foglia, Miquel Garcia-Rates, Ingolf Harden, Hagen Neugebauer, Anastasios Papadopoulos, 
  Christoph Riplinger, Bernardo de Souza, Georgi L. Stoychev                                                    
                                                                 
  APM, various basis sets, CI-OPT, improved COSX, DLPNO-Multilevel,           
  DOCKER, DRACO, updates on ESD, Fragmentator, GOAT, IRC, LR-CPCM, L-BFGS, MBIS, meta-GGA TD-DFT gradient, ML-optimized integration grids, 
  MM, NACMEs, nearIR, NEB, NEB-TS, NL-DFT gradient (VV10), 2- and 3-layer-ONIOM, interface openCOSMO-RS, QMMM,   
  Crystal-QMMM, RESP, rigid body optimization, SF, symmetry and pop. for TD-DFT, various functionals, SOLVATOR                                   
                                                                         
[Other institutions]                                                     
  V. Asgeirsson          : NEB                                           
  Christoph Bannwarth    : sTDA-DFT, sTD-DFT, PBEh-3c, B97-3c, D3        
  Giovanni Bistoni       : ETS/NOCV, ADLD/ADEX, COVALED                  
  Martin Brehm           : Molecular dynamics                            
  Ronald Cardenas        : ETS/NOCV                                      
  Martina Colucci        : COVALED                                       
  Sebastian Ehlert       : rSCAN, r2SCAN, r2SCAN-3c, D4, dhf basis sets  
  Marvin Friede          : D4 for Fr, Ra, Ac-Lr                          
  Lars Goerigk           : TD-DFT with DH, B97 family of functionals     
  Stefan Grimme          : VdW corrections, initial TS optimization, DFT functionals, gCP, sTDA/sTD-DF 
  Waldemar Hujo          : DFT-NL                                        
  H. Jonsson             : NEB                                           
  Holger Kruse           : gCP                                           
  Marcel Mueller         : wB97X-3c, vDZP basis set                      
  Hagen Neugebauer       : wr2SCAN, Native XTB                           
  Gianluca Regni         : ADLD/ADEX                                     
  Tobias Risthaus        : pre 6.0 range-separated hybrid DFT and stability analysis
  Lukas Wittmann         : regularized MP2, r2SCAN double-hybrids, wr2SCAN        
                                                                         
We gratefully acknowledge several colleagues who have allowed us to      
interface, adapt or use parts of their codes:                            
  Ed Valeev, F. Pavosevic, A. Kumar             : LibInt (2-el integral package), F12 methods 
  Garnet Chan, S. Sharma, J. Yang, R. Olivares  : DMRG                   
  Ulf Ekstrom                                   : XCFun DFT Library      
  Mihaly Kallay                                 : mrcc  (arbitrary order and MRCC methods)
  Frank Weinhold                                : gennbo (NPA and NBO analysis)           
  Simon Mueller                                 : openCOSMO-RS                            
  Christopher J. Cramer and Donald G. Truhlar   : smd solvation model                     
  S Lehtola, MJT Oliveira, MAL Marques          : LibXC Library                           
  Liviu Ungur et al                             : ANISO software                          


 Your calculation uses the libint2 library for the computation of 2-el integrals
 For citations please refer to: http://libint.valeyev.net

 Your ORCA version has been built with support for libXC version: 7.0.0
 For citations please refer to: https://libxc.gitlab.io

 This ORCA versions uses:
   CBLAS   interface :  Fast vector & matrix operations
   LAPACKE interface :  Fast linear algebra routines
   SCALAPACK package :  Parallel linear algebra routines
   Shared memory     :  Shared parallel matrices
   BLAS/LAPACK       :  OpenBLAS 0.3.29  USE64BITINT DYNAMIC_ARCH NO_AFFINITY Zen SINGLE_THREADED
        Core in use  :  Zen
   Copyright (c) 2011-2014, The OpenBLAS Project


  ***********************************
  * Starting time: Fri Apr 17 12:14:37 2026
  * Host name:     vmi3233575
  * Process ID:    337340
  * Working dir.:  /root/orca_b12_vps_pack/jobs/01_xtb/mult_3
  ***********************************

NOTE: MaxCore=500 MB was set to SCF,MP2,MDCI,CIPSI,MRCI,RASCI and CIS
      => If you want to overwrite this, your respective input block should be placed after the MaxCore statement


***************************************
The coordinates will be read from file: ../../../starts/random_d1.70_001.xyz
***************************************


Your calculation utilizes the semiempirical GFN2-xTB method
Please cite in your paper:
Bannwarth, C.; Ehlert S.; Grimme, S. J. Chem. Theory Comput. 2019, 15, 1652.
   

================================================================================

================================================================================
                                        WARNINGS
                       Please study these warnings very carefully!
================================================================================


WARNING: Geometry Optimization
  ===> : Switching off AutoStart
         For restart on a previous wavefunction, please use MOREAD

WARNING: Found dipole moment calculation with XTB calculation
  ===> : Switching off dipole moment calculation

Environment variable XTBEXE for xtb has been set!

================================================================================
                                       INPUT FILE
================================================================================
NAME = random_d1.70_001_m3.inp
|  1> ! GFN2-xTB TightSCF TightOpt
|  2> 
|  3> %pal
|  4>   nprocs 1
|  5> end
|  6> 
|  7> %maxcore 500
|  8> 
|  9> * xyzfile 0 3 ../../../starts/random_d1.70_001.xyz
| 10> 
| 11>                          ****END OF INPUT****
================================================================================

                       *****************************
                       * Geometry Optimization Run *
                       *****************************

Geometry optimization settings:
Update method            Update   .... BFGS
Choice of coordinates    CoordSys .... (2022) Redundant Internals
Initial Hessian          InHess   .... Almloef's Model
Max. no of cycles        MaxIter  .... 50

Convergence Tolerances:
Energy Change            TolE     ....  1.0000e-06 Eh
Max. Gradient            TolMAXG  ....  1.0000e-04 Eh/bohr
RMS Gradient             TolRMSG  ....  3.0000e-05 Eh/bohr
Max. Displacement        TolMAXD  ....  1.0000e-03 bohr
RMS Displacement         TolRMSD  ....  6.0000e-04 bohr
Strict Convergence                .... False

------------------------------------------------------------------------------
                        ORCA OPTIMIZATION COORDINATE SETUP
------------------------------------------------------------------------------

The optimization will be done in redundant internal coordinates (2022)
Making redundant internal coordinates   ...  (2022 redundants) done
Evaluating the initial hessian          ...  (Almloef) done
Evaluating the coordinates              ...  done
Calculating the B-matrix                .... done
Calculating the G-matrix                .... done
The number of degrees of freedom        ....  209

    -----------------------------------------------------------------
                    Redundant Internal Coordinates


    -----------------------------------------------------------------
         Definition                    Initial Value    Approx d2E/dq
    -----------------------------------------------------------------
      1. B(B   2,B   1)                  2.6263         0.010000   
      2. B(B   3,B   1)                  3.0512         0.010000   
      3. B(B   4,B   2)                  2.2568         0.034715   
      4. B(B   5,B   3)                  1.8598         0.149228   
      5. B(B   5,B   1)                  2.8463         0.010000   
      6. B(B   6,B   1)                  2.4133         0.019530   
      7. B(B   6,B   3)                  2.6211         0.010000   
      8. B(B   7,B   3)                  1.8375         0.161934   
      9. B(B   7,B   6)                  2.1826         0.045592   
     10. B(B   8,B   3)                  2.6406         0.010000   
     11. B(B   8,B   4)                  2.1789         0.046206   
     12. B(B   9,B   3)                  2.3098         0.028571   
     13. B(B   9,B   5)                  2.1951         0.043547   
     14. B(B   9,B   4)                  1.5069         0.545678   
     15. B(B   9,B   8)                  2.2942         0.030257   
     16. B(B  10,B   2)                  2.1893         0.044478   
     17. B(B  10,B   0)                  1.4637         0.639366   
     18. B(B  10,B   6)                  2.5123         0.013576   
     19. B(B  11,B  10)                  1.9871         0.093480   
     20. B(B  11,B   8)                  1.2241         1.542182   
     21. B(B  11,B   0)                  1.5144         0.530780   
     22. B(B  11,B   4)                  2.1904         0.044306   
     23. A(B  10,B   0,B  11)           83.6900         0.439048   
     24. A(B   2,B   1,B   5)          102.1510         0.132989   
     25. A(B   3,B   1,B   5)           36.5551         0.119897   
     26. A(B   5,B   1,B   6)           90.4425         0.141512   
     27. A(B   2,B   1,B   6)           80.5159         0.152051   
     28. A(B   3,B   1,B   6)           55.8652         0.133285   
     29. A(B   2,B   1,B   3)           84.3678         0.126097   
     30. A(B   1,B   2,B   4)           95.5763         0.160818   
     31. A(B   1,B   2,B  10)           96.8998         0.164961   
     32. A(B   4,B   2,B  10)           90.8727         0.192287   
     33. A(B   1,B   3,B   8)          105.8804         0.125660   
     34. A(B   8,B   3,B   9)           54.7251         0.156910   
     35. A(B   7,B   3,B   9)          139.2261         0.221409   
     36. A(B   1,B   3,B   6)           49.6509         0.126259   
     37. A(B   1,B   3,B   7)          104.9340         0.160479   
     38. A(B   1,B   3,B   5)           65.7167         0.159169   
     39. A(B   5,B   3,B   6)          112.3212         0.189339   
     40. A(B   6,B   3,B   9)          113.4438         0.158020   
     41. A(B   6,B   3,B   8)           99.5341         0.141423   
     42. A(B   5,B   3,B   7)          156.2555         0.281491   
     43. A(B   7,B   3,B   8)           86.6627         0.189568   
     44. A(B   1,B   3,B   9)           77.4513         0.137267   
     45. A(B   5,B   3,B   8)          116.5869         0.187725   
     46. A(B   6,B   3,B   7)           55.3046         0.191212   
     47. A(B   5,B   3,B   9)           62.4356         0.218982   
     48. A(B   8,B   4,B   9)           74.4979         0.283350   
     49. A(B   2,B   4,B  11)           80.3330         0.192197   
     50. A(B   2,B   4,B   8)          105.4458         0.193182   
     51. A(B   2,B   4,B   9)          115.0551         0.271172   
     52. A(B   9,B   4,B  11)          103.6995         0.281512   
     53. A(B   8,B   4,B  11)           32.5369         0.199096   
     54. A(B   1,B   5,B   9)           83.8572         0.151962   
     55. A(B   1,B   5,B   3)           77.7282         0.172204   
     56. A(B   3,B   5,B   9)           68.8793         0.231992   
     57. A(B   1,B   6,B   3)           74.4839         0.152326   
     58. A(B   1,B   6,B  10)           94.4275         0.158319   
     59. A(B   1,B   6,B   7)          118.2649         0.180188   
     60. A(B   3,B   6,B  10)           85.6391         0.147322   
     61. A(B   3,B   6,B   7)           43.8061         0.165721   
     62. A(B   7,B   6,B  10)           84.1721         0.172982   
     63. A(B   3,B   7,B   6)           80.8893         0.236182   
     64. A(B   9,B   8,B  11)          109.4490         0.312404   
     65. A(B   3,B   8,B   9)           55.2800         0.157797   
     66. A(B   3,B   8,B   4)           84.0612         0.164716   
     67. A(B   4,B   8,B  11)           74.2451         0.334872   
     68. A(B   3,B   8,B  11)          111.2925         0.256494   
     69. A(B   4,B   8,B   9)           39.2662         0.189990   
     70. A(B   3,B   9,B   5)           48.6850         0.187360   
     71. A(B   3,B   9,B   8)           69.9949         0.179579   
     72. A(B   3,B   9,B   4)          114.8387         0.263314   
     73. A(B   4,B   9,B   8)           66.2360         0.265591   
     74. A(B   5,B   9,B   8)          118.1126         0.188645   
     75. A(B   4,B   9,B   5)          142.2642         0.280761   
     76. A(B   2,B  10,B   6)           87.5418         0.172513   
     77. A(B   6,B  10,B  11)          115.8402         0.187802   
     78. A(B   0,B  10,B   6)          161.1997         0.241674   
     79. A(B   2,B  10,B  11)           86.6321         0.218246   
     80. A(B   0,B  10,B   2)          101.3834         0.288717   
     81. A(B   0,B  10,B  11)           49.2434         0.325279   
     82. A(B   4,B  11,B  10)           98.5235         0.218132   
     83. A(B   8,B  11,B  10)          126.3191         0.377386   
     84. A(B   0,B  11,B   8)          164.2340         0.516244   
     85. A(B   4,B  11,B   8)           73.2180         0.332547   
     86. A(B   0,B  11,B   4)          119.8669         0.280310   
     87. A(B   0,B  11,B  10)           47.0666         0.315532   
     88. D(B   4,B   2,B   1,B   6)     97.7610         0.010000   
     89. D(B   4,B   2,B   1,B   5)      9.3632         0.010000   
     90. D(B  10,B   2,B   1,B   3)    -50.0747         0.010000   
     91. D(B  10,B   2,B   1,B   6)      6.2007         0.010000   
     92. D(B  10,B   2,B   1,B   5)    -82.1971         0.010000   
     93. D(B   7,B   3,B   1,B   6)      1.6593         0.010000   
     94. D(B   9,B   3,B   1,B   6)   -136.3779         0.010000   
     95. D(B   9,B   3,B   1,B   5)     65.1868         0.010000   
     96. D(B   5,B   3,B   1,B   2)   -119.2179         0.010000   
     97. D(B   7,B   3,B   1,B   2)     84.0061         0.010000   
     98. D(B   7,B   3,B   1,B   5)   -156.7760         0.010000   
     99. D(B   5,B   3,B   1,B   6)    158.4353         0.010000   
    100. D(B   9,B   3,B   1,B   2)    -54.0312         0.010000   
    101. D(B   8,B   4,B   2,B   1)    -89.4072         0.010000   
    102. D(B  11,B   4,B   2,B  10)    -13.2726         0.010000   
    103. D(B   9,B   4,B   2,B  10)     87.4215         0.010000   
    104. D(B   8,B   4,B   2,B  10)      7.6122         0.010000   
    105. D(B   9,B   4,B   2,B   1)     -9.5979         0.010000   
    106. D(B   1,B   5,B   3,B   8)    -96.3088         0.010000   
    107. D(B   9,B   5,B   3,B   6)    105.7138         0.010000   
    108. D(B   1,B   5,B   3,B   7)     71.1260         0.010000   
    109. D(B   9,B   5,B   1,B   2)     -6.9864         0.010000   
    110. D(B   9,B   5,B   3,B   8)     -8.2212         0.010000   
    111. D(B   9,B   5,B   1,B   3)    -69.6668         0.010000   
    112. D(B   9,B   5,B   3,B   7)    159.2136         0.010000   
    113. D(B   1,B   5,B   3,B   9)    -88.0876         0.010000   
    114. D(B   3,B   5,B   1,B   2)     62.6805         0.010000   
    115. D(B   9,B   5,B   3,B   1)     88.0876         0.010000   
    116. D(B   3,B   5,B   1,B   6)    -17.7124         0.010000   
    117. D(B   9,B   5,B   1,B   6)    -87.3792         0.010000   
    118. D(B   7,B   6,B   1,B   2)    -91.1338         0.010000   
    119. D(B  10,B   6,B   3,B   7)     86.1233         0.010000   
    120. D(B   7,B   6,B   3,B   1)    178.0499         0.010000   
    121. D(B  10,B   6,B   1,B   5)     96.8691         0.010000   
    122. D(B   7,B   6,B   3,B   8)    -79.1597         0.010000   
    123. D(B   7,B   6,B   3,B   9)   -134.7265         0.010000   
    124. D(B   7,B   6,B   3,B   5)    156.8164         0.010000   
    125. D(B  10,B   6,B   1,B   3)     84.2236         0.010000   
    126. D(B  10,B   6,B   3,B   5)   -117.0603         0.010000   
    127. D(B  10,B   6,B   3,B   8)      6.9636         0.010000   
    128. D(B  10,B   6,B   1,B   2)     -5.3777         0.010000   
    129. D(B  10,B   6,B   3,B   9)    -48.6032         0.010000   
    130. D(B   7,B   6,B   1,B   3)     -1.5325         0.010000   
    131. D(B   7,B   6,B   1,B   5)     11.1130         0.010000   
    132. D(B   3,B   7,B   6,B  10)    -89.7706         0.010000   
    133. D(B   6,B   7,B   3,B   1)     -1.5380         0.010000   
    134. D(B   6,B   7,B   3,B   8)    104.0146         0.010000   
    135. D(B   6,B   7,B   3,B   9)     86.4539         0.010000   
    136. D(B   6,B   7,B   3,B   5)    -64.7480         0.010000   
    137. D(B   3,B   7,B   6,B   1)      2.1335         0.010000   
    138. D(B   9,B   8,B   4,B   2)    112.2908         0.010000   
    139. D(B  11,B   8,B   4,B   2)    -40.7987         0.010000   
    140. D(B  11,B   8,B   3,B   1)     38.0310         0.010000   
    141. D(B   4,B   8,B   3,B   7)   -137.0697         0.010000   
    142. D(B   4,B   8,B   3,B   5)     37.8962         0.010000   
    143. D(B  11,B   8,B   4,B   9)   -153.0895         0.010000   
    144. D(B  11,B   8,B   3,B   6)    -12.5653         0.010000   
    145. D(B  11,B   8,B   3,B   9)     99.4804         0.010000   
    146. D(B  11,B   8,B   3,B   7)    -66.5529         0.010000   
    147. D(B   9,B   8,B   4,B  11)    153.0895         0.010000   
    148. D(B   4,B   8,B   3,B   9)     28.9635         0.010000   
    149. D(B   3,B   8,B   4,B   9)    -38.9670         0.010000   
    150. D(B  11,B   8,B   3,B   5)    108.4131         0.010000   
    151. D(B   3,B   8,B   4,B  11)    114.1224         0.010000   
    152. D(B   3,B   9,B   8,B  11)   -102.9344         0.010000   
    153. D(B   5,B   9,B   8,B   3)     -7.6651         0.010000   
    154. D(B   5,B   9,B   8,B  11)   -110.5996         0.010000   
    155. D(B   4,B   9,B   8,B   3)    130.4478         0.010000   
    156. D(B   4,B   9,B   8,B  11)     27.5133         0.010000   
    157. D(B   3,B   9,B   5,B   1)     79.1873         0.010000   
    158. D(B   8,B   9,B   5,B   1)     88.7932         0.010000   
    159. D(B   8,B   9,B   5,B   3)      9.6059         0.010000   
    160. D(B   4,B   9,B   5,B   1)      2.0133         0.010000   
    161. D(B   4,B   9,B   5,B   3)    -77.1740         0.010000   
    162. D(B   3,B   9,B   4,B   8)     51.9965         0.016088   
    163. D(B   5,B   9,B   4,B   2)      5.6971         0.016088   
    164. D(B   5,B   9,B   4,B  11)     91.2904         0.016088   
    165. D(B   5,B   9,B   4,B   8)    105.8007         0.016088   
    166. D(B   8,B   9,B   4,B   2)   -100.1036         0.016088   
    167. D(B   8,B   9,B   4,B  11)    -14.5103         0.016088   
    168. D(B   8,B   9,B   3,B   6)     85.0887         0.010000   
    169. D(B   8,B   9,B   3,B   7)     21.6506         0.010000   
    170. D(B   8,B   9,B   3,B   5)   -170.9884         0.010000   
    171. D(B   4,B   9,B   3,B   1)     69.9274         0.010000   
    172. D(B   4,B   9,B   3,B   6)     34.9615         0.010000   
    173. D(B   5,B   9,B   8,B   4)   -138.1129         0.010000   
    174. D(B   4,B   9,B   3,B   8)    -50.1273         0.010000   
    175. D(B   4,B   9,B   3,B   7)    -28.4767         0.010000   
    176. D(B   4,B   9,B   3,B   5)    138.8843         0.010000   
    177. D(B  11,B  10,B   6,B   1)    -78.6867         0.010000   
    178. D(B  11,B  10,B   6,B   3)     -4.6483         0.010000   
    179. D(B  11,B  10,B   6,B   7)     39.3172         0.010000   
    180. D(B   0,B  10,B   6,B   1)   -112.7649         0.010000   
    181. D(B   0,B  10,B   6,B   3)    -38.7265         0.010000   
    182. D(B   0,B  10,B   6,B   7)      5.2390         0.010000   
    183. D(B   6,B  10,B   2,B   4)   -101.6030         0.010000   
    184. D(B  11,B  10,B   2,B   1)    110.1957         0.010000   
    185. D(B  11,B  10,B   2,B   4)     14.4718         0.010000   
    186. D(B   0,B  10,B   2,B   1)    157.4342         0.010000   
    187. D(B   0,B  10,B   2,B   4)     61.7103         0.010000   
    188. D(B   6,B  10,B   0,B  11)     41.7399         0.019043   
    189. D(B   2,B  10,B   0,B  11)    -75.3666         0.019043   
    190. D(B   4,B  11,B  10,B   0)   -123.2531         0.010000   
    191. D(B   8,B  11,B  10,B   6)     -4.8551         0.010000   
    192. D(B   8,B  11,B  10,B   2)    -90.4828         0.010000   
    193. D(B   0,B  11,B  10,B   6)   -166.2086         0.010000   
    194. D(B   0,B  11,B  10,B   2)    108.1637         0.010000   
    195. D(B  10,B  11,B   8,B   3)     11.3292         0.155161   
    196. D(B  10,B  11,B   8,B   9)     70.6210         0.155161   
    197. D(B  10,B  11,B   8,B   4)     88.3067         0.155161   
    198. D(B   0,B  11,B   8,B   3)     70.8189         0.155161   
    199. D(B   0,B  11,B   8,B   9)    130.1107         0.155161   
    200. D(B   0,B  11,B   8,B   4)    147.7964         0.155161   
    201. D(B  10,B  11,B   4,B   9)    -98.8012         0.010000   
    202. D(B   8,B  11,B   4,B   2)    140.2919         0.010000   
    203. D(B   8,B  11,B   4,B   9)     26.6734         0.010000   
    204. D(B   0,B  11,B   4,B   2)    -30.0958         0.010000   
    205. D(B   8,B  11,B  10,B   0)    161.3535         0.010000   
    206. D(B   0,B  11,B   4,B   8)   -170.3877         0.010000   
    207. D(B   0,B  11,B   4,B   9)   -143.7144         0.010000   
    208. D(B   4,B  11,B   0,B  10)     72.4937         0.013154   
    209. D(B   8,B  11,B   0,B  10)    -71.4643         0.013154   
    -----------------------------------------------------------------

Number of atoms                         .... 12
Number of degrees of freedom            .... 209


         *************************************************************
         *                GEOMETRY OPTIMIZATION CYCLE   1            *
         *************************************************************
---------------------------------
CARTESIAN COORDINATES (ANGSTROEM)
---------------------------------
  B    -1.199160   -2.011258   -1.470838
  B     1.707153   -0.299947    2.021496
  B     1.332159   -1.700383   -0.168426
  B    -0.372629    1.579576    0.816559
  B     1.254848    0.078096   -1.555501
  B     1.288505    2.363275    1.108585
  B    -0.676919   -0.642974    2.172200
  B    -1.994538    0.852254    1.282392
  B    -0.840140    0.673636   -1.619297
  B     1.196357    1.419205   -0.870941
  B    -0.854097   -1.761353   -0.070492
  B    -0.841539   -0.550128   -1.645736

----------------------------
CARTESIAN COORDINATES (A.U.)
----------------------------
  NO LB    ZA    FRAG    MASS        X           Y           Z
   0 B   5.0000    0    10.810   -2.266083   -3.800727   -2.779482
   1 B   5.0000    0    10.810    3.226051   -0.566818    3.820074
   2 B   5.0000    0    10.810    2.517416   -3.213258   -0.318280
   3 B   5.0000    0    10.810   -0.704167    2.984967    1.543073
   4 B   5.0000    0    10.810    2.371320    0.147580   -2.939471
   5 B   5.0000    0    10.810    2.434921    4.465943    2.094922
   6 B   5.0000    0    10.810   -1.279191   -1.215044    4.104863
   7 B   5.0000    0    10.810   -3.769131    1.610527    2.423371
   8 B   5.0000    0    10.810   -1.587635    1.272987   -3.060028
   9 B   5.0000    0    10.810    2.260788    2.681908   -1.645840
  10 B   5.0000    0    10.810   -1.614009   -3.328474   -0.133210
  11 B   5.0000    0    10.810   -1.590278   -1.039591   -3.109990

      -----------------------------------------------------------      
     |                   =====================                   |     
     |                           x T B                           |     
     |                   =====================                   |     
     |                         S. Grimme                         |     
     |          Mulliken Center for Theoretical Chemistry        |     
     |                    University of Bonn                     |     
      -----------------------------------------------------------      

   * xtb version 6.6.1 (unknown) compiled by 'builduser@buildhost' on 2023-08-07

   xtb is free software: you can redistribute it and/or modify it under
   the terms of the GNU Lesser General Public License as published by
   the Free Software Foundation, either version 3 of the License, or
   (at your option) any later version.
   
   xtb is distributed in the hope that it will be useful,
   but WITHOUT ANY WARRANTY; without even the implied warranty of
   MERCHANTABILITY or FITNESS FOR A PARTICULAR PURPOSE.  See the
   GNU Lesser General Public License for more details.
   
   Cite this work as:
   * C. Bannwarth, E. Caldeweyher, S. Ehlert, A. Hansen, P. Pracht,
     J. Seibert, S. Spicher, S. Grimme, WIREs Comput. Mol. Sci., 2020, 11,
     e01493. DOI: 10.1002/wcms.1493
   
   for GFN2-xTB:
   * C. Bannwarth, S. Ehlert and S. Grimme., J. Chem. Theory Comput., 2019,
     15, 1652-1671. DOI: 10.1021/acs.jctc.8b01176
   for GFN1-xTB:
   * S. Grimme, C. Bannwarth, P. Shushkov, J. Chem. Theory Comput., 2017,
     13, 1989-2009. DOI: 10.1021/acs.jctc.7b00118
   for GFN0-xTB:
   * P. Pracht, E. Caldeweyher, S. Ehlert, S. Grimme, ChemRxiv, 2019, preprint.
     DOI: 10.26434/chemrxiv.8326202.v1
   for GFN-FF:
   * S. Spicher and S. Grimme, Angew. Chem. Int. Ed., 2020, 59, 15665-15673.
     DOI: 10.1002/anie.202004239
   
   for ALPB and GBSA implicit solvation:
   * S. Ehlert, M. Stahn, S. Spicher, S. Grimme, J. Chem. Theory Comput.,
     2021, 17, 4250-4261. DOI: 10.1021/acs.jctc.1c00471
   
   for DFT-D4:
   * E. Caldeweyher, C. Bannwarth and S. Grimme, J. Chem. Phys., 2017,
     147, 034112. DOI: 10.1063/1.4993215
   * E. Caldeweyher, S. Ehlert, A. Hansen, H. Neugebauer, S. Spicher,
     C. Bannwarth and S. Grimme, J. Chem. Phys., 2019, 150, 154122.
     DOI: 10.1063/1.5090222
   * E. Caldeweyher, J.-M. Mewes, S. Ehlert and S. Grimme, Phys. Chem. Chem. Phys.
     2020, 22, 8499-8512. DOI: 10.1039/D0CP00502A
   
   for sTDA-xTB:
   * S. Grimme and C. Bannwarth, J. Chem. Phys., 2016, 145, 054103.
     DOI: 10.1063/1.4959605
   
   in the mass-spec context:
   * V. Asgeirsson, C. Bauer and S. Grimme, Chem. Sci., 2017, 8, 4879.
     DOI: 10.1039/c7sc00601b
   * J. Koopman and S. Grimme, ACS Omega 2019, 4, 12, 15120-15133.
     DOI: 10.1021/acsomega.9b02011
   
   for metadynamics refer to:
   * S. Grimme, J. Chem. Theory Comput., 2019, 155, 2847-2862
     DOI: 10.1021/acs.jctc.9b00143
   
   for SPH calculations refer to:
   * S. Spicher and S. Grimme, J. Chem. Theory Comput., 2021, 17, 1701-1714
     DOI: 10.1021/acs.jctc.0c01306
   
   with help from (in alphabetical order)
   P. Atkinson, C. Bannwarth, F. Bohle, G. Brandenburg, E. Caldeweyher
   M. Checinski, S. Dohm, S. Ehlert, S. Ehrlich, I. Gerasimov, C. Hölzer
   A. Katbashev, J. Koopman, C. Lavigne, S. Lehtola, F. März, M. Müller,
   F. Musil, H. Neugebauer, J. Pisarek, C. Plett, P. Pracht, F. Pultar,
   J. Seibert, P. Shushkov, S. Spicher, M. Stahn, M. Steiner, T. Strunk,
   J. Stückrath, T. Rose, and J. Unsleber
   
 * started run on 2026/04/17 at 12:14:37.524     

           -------------------------------------------------
          |                Calculation Setup                |
           -------------------------------------------------

          program call               : /usr/bin/xtb random_d1.70_001_m3_XTB.xyz --grad -c 0 -u 2 -P 1 --namespace random_d1.70_001_m3 --input random_d1.70_001_m3_XTB.input.tmp --acc 0.200000
          calculation namespace      : random_d1.70_001_m3
          coordinate file            : random_d1.70_001_m3_XTB.xyz
          omp threads                :                     1

   ID    Z sym.   atoms
    1    5 B      1-12

molecular fragmentation (1/2 indicates fragments):
121212221111
# atoms in fragment 1/2:     7     5
 fragment masses (1/2) :       75.68       54.06
CMA distance (Bohr)    :   5.406
constraining FC (au)   :  0.0500

           -------------------------------------------------
          |                 G F N 2 - x T B                 |
           -------------------------------------------------

        Reference                      10.1021/acs.jctc.8b01176
      * Hamiltonian:
        H0-scaling (s, p, d)           1.850000    2.230000    2.230000
        zeta-weighting                 0.500000
      * Dispersion:
        s8                             2.700000
        a1                             0.520000
        a2                             5.000000
        s9                             5.000000
      * Repulsion:
        kExp                           1.500000    1.000000
        rExp                           1.000000
      * Coulomb:
        alpha                          2.000000
        third order                    shell-resolved
        anisotropic                    true
        a3                             3.000000
        a5                             4.000000
        cn-shift                       1.200000
        cn-exp                         4.000000
        max-rad                        5.000000


          ...................................................
          :                      SETUP                      :
          :.................................................:
          :  # basis functions                  48          :
          :  # atomic orbitals                  48          :
          :  # shells                           24          :
          :  # electrons                        36          :
          :  max. iterations                   250          :
          :  Hamiltonian                  GFN2-xTB          :
          :  restarted?                      false          :
          :  GBSA solvation                  false          :
          :  PC potential                    false          :
          :  electronic temp.          300.0000000     K    :
          :  accuracy                    0.2000000          :
          :  -> integral cutoff          0.3198970E+02      :
          :  -> integral neglect         0.2000000E-08      :
          :  -> SCF convergence          0.2000000E-06 Eh   :
          :  -> wf. convergence          0.2000000E-04 e    :
          :  Broyden damping             0.4000000          :
          ...................................................

 iter      E             dE          RMSdq      gap      omega  full diag
   1    -13.0784266 -0.130784E+02  0.202E+01    0.22       0.0  T
   2     -1.9997860  0.110786E+02  0.207E+01    0.55       1.0  T
   3     14.8868302  0.168866E+02  0.284E+01    0.71       1.0  T
   4     -4.3534077 -0.192402E+02  0.184E+01    0.21       1.0  T
   5     -7.2071970 -0.285379E+01  0.135E+01    0.14       1.0  T
   6     -2.9099192  0.429728E+01  0.165E+01    0.24       1.0  T
   7    -10.9737763 -0.806386E+01  0.115E+01    0.19       1.0  T
   8    -10.2160589  0.757717E+00  0.111E+01    0.37       1.0  T
   9    -12.4996161 -0.228356E+01  0.852E+00    0.30       1.0  T
  10    -12.6407565 -0.141140E+00  0.862E+00    0.32       1.0  T
  11    -12.5889435  0.518130E-01  0.805E+00    0.36       1.0  T
  12    -12.7357046 -0.146761E+00  0.749E+00    0.26       1.0  T
  13    -12.9193888 -0.183684E+00  0.664E+00    0.23       1.0  T
  14    -13.1503635 -0.230975E+00  0.528E+00    0.21       1.0  T
  15    -13.3760434 -0.225680E+00  0.412E+00    0.26       1.0  T
  16    -13.3555036  0.205398E-01  0.398E+00    0.26       1.0  T
  17    -13.3723976 -0.168940E-01  0.395E+00    0.29       1.0  T
  18    -13.3809086 -0.851095E-02  0.376E+00    0.29       1.0  T
  19    -13.4835333 -0.102625E+00  0.312E+00    0.28       1.0  T
  20    -13.5610337 -0.775004E-01  0.220E+00    0.26       1.0  T
  21    -13.5996970 -0.386634E-01  0.197E+00    0.21       1.0  T
  22    -13.6097268 -0.100298E-01  0.177E+00    0.20       1.0  T
  23    -13.6178280 -0.810123E-02  0.150E+00    0.20       1.0  T
  24    -13.6301362 -0.123082E-01  0.953E-01    0.20       1.0  T
  25    -13.6304818 -0.345570E-03  0.937E-01    0.20       1.0  T
  26    -13.6392060 -0.872427E-02  0.419E-01    0.19       1.0  T
  27    -13.6401027 -0.896670E-03  0.307E-01    0.19       1.0  T
  28    -13.6402127 -0.110013E-03  0.289E-01    0.19       1.0  T
  29    -13.6413642 -0.115143E-02  0.110E-01    0.19       1.0  T
  30    -13.6414367 -0.725647E-04  0.842E-02    0.19       1.0  T
  31    -13.6414505 -0.138266E-04  0.698E-02    0.19       1.0  T
  32    -13.6414770 -0.264860E-04  0.566E-02    0.18       1.0  T
  33    -13.6414863 -0.930398E-05  0.271E-02    0.18       1.1  T
  34    -13.6414896 -0.321891E-05  0.227E-02    0.18       1.3  T
  35    -13.6414893  0.287295E-06  0.217E-02    0.19       1.3  T
  36    -13.6414938 -0.453313E-05  0.109E-02    0.19       2.7  T
  37    -13.6414938  0.102929E-07  0.958E-03    0.19       3.0  T
  38    -13.6414949 -0.109866E-05  0.293E-03    0.19       9.9  T
  39    -13.6414949 -0.332550E-07  0.204E-03    0.19      14.1  T
  40    -13.6414950 -0.437304E-07  0.106E-03    0.19      27.1  T
  41    -13.6414950 -0.383349E-08  0.894E-04    0.19      32.3  T
  42    -13.6414950 -0.425986E-08  0.461E-04    0.19      62.6  T
  43    -13.6414950 -0.108077E-08  0.268E-04    0.19     107.9  T
  44    -13.6414950 -0.362208E-09  0.818E-05    0.19     353.1  T
  45    -13.6414950 -0.412506E-10  0.437E-05    0.19     660.2  T

   *** convergence criteria satisfied after 45 iterations ***

         #    Occupation            Energy/Eh            Energy/eV
      -------------------------------------------------------------
         1        2.0000           -0.4081622             -11.1067
       ...           ...                  ...                  ...
        13        2.0000           -0.2660643              -7.2400
        14        2.0000           -0.2576747              -7.0117
        15        2.0000           -0.2526844              -6.8759
        16        2.0000           -0.2495056              -6.7894
        17        1.9908           -0.2408276              -6.5533
        18        1.0047           -0.2318096              -6.3079
        19        0.9757           -0.2298708              -6.2551 (HOMO)
        20        0.0288           -0.2230610              -6.0698 (LUMO)
        21        0.0000           -0.2146674              -5.8414
        22                         -0.2095781              -5.7029
        23                         -0.2032953              -5.5319
        24                         -0.1945690              -5.2945
       ...                                ...                  ...
        48                          3.0200865              82.1807
      -------------------------------------------------------------
                  HL-Gap            0.0068098 Eh            0.1853 eV
             Fermi-level           -0.2313913 Eh           -6.2965 eV

 transition dipole moment (au) for excitation:          18          19
     X       Y       Z   
   0.6092   0.2213  -0.2939  total (au/Debye):    0.712   1.809
 dE (eV)             :    0.053
 oscillator strength :  0.92585E-03

 SCC (total)                   0 d,  0 h,  0 min,  0.080 sec
 SCC setup                      ...        0 min,  0.000 sec (  0.146%)
 Dispersion                     ...        0 min,  0.000 sec (  0.126%)
 classical contributions        ...        0 min,  0.000 sec (  0.040%)
 integral evaluation            ...        0 min,  0.006 sec (  7.467%)
 iterations                     ...        0 min,  0.063 sec ( 78.592%)
 molecular gradient             ...        0 min,  0.006 sec (  7.717%)
 printout                       ...        0 min,  0.005 sec (  5.871%)

         :::::::::::::::::::::::::::::::::::::::::::::::::::::
         ::                     SUMMARY                     ::
         :::::::::::::::::::::::::::::::::::::::::::::::::::::
         :: total energy             -13.376478351298 Eh    ::
         :: gradient norm              0.770991844107 Eh/a0 ::
         :: HOMO-LUMO gap              0.185302831764 eV    ::
         ::.................................................::
         :: SCC energy               -13.641494976731 Eh    ::
         :: -> isotropic ES            0.066432258979 Eh    ::
         :: -> anisotropic ES          0.005993877845 Eh    ::
         :: -> anisotropic XC         -0.030819127706 Eh    ::
         :: -> dispersion             -0.025183148551 Eh    ::
         :: repulsion energy           0.264936845696 Eh    ::
         :: add. restraining           0.000000000000 Eh    ::
         :: total charge               0.000000000002 e     ::
         :::::::::::::::::::::::::::::::::::::::::::::::::::::


Property printout bound to 'properties.out'

           -------------------------------------------------
          | TOTAL ENERGY              -13.376478351298 Eh   |
          | GRADIENT NORM               0.770991844107 Eh/α |
          | HOMO-LUMO GAP               0.185302831764 eV   |
           -------------------------------------------------

------------------------------------------------------------------------
 * finished run on 2026/04/17 at 12:14:37.620     
------------------------------------------------------------------------
 total:
 * wall-time:     0 d,  0 h,  0 min,  0.096 sec
 *  cpu-time:     0 d,  0 h,  0 min,  0.089 sec
 * ratio c/w:     0.930 speedup
 SCF:
 * wall-time:     0 d,  0 h,  0 min,  0.080 sec
 *  cpu-time:     0 d,  0 h,  0 min,  0.074 sec
 * ratio c/w:     0.925 speedup


-------------------------   --------------------
FINAL SINGLE POINT ENERGY       -13.376478351300
-------------------------   --------------------


-------------
DIPOLE MOMENT
-------------
                                X             Y             Z
Total Dipole Moment    :     -0.14700       0.23400      -0.71000
                        -----------------------------------------
Magnitude (a.u.)       :      0.76188
Magnitude (Debye)      :      1.93655


------------------
CARTESIAN GRADIENT
------------------

   1   B   :    0.007202188    0.026850440    0.001059412
   2   B   :    0.074349662    0.010414346    0.037722311
   3   B   :    0.042683196   -0.065544002   -0.000514150
   4   B   :   -0.004147679   -0.004339709   -0.019617113
   5   B   :    0.021828621    0.032038245   -0.032203054
   6   B   :    0.068879732    0.081846228    0.065193194
   7   B   :   -0.011722561   -0.041370383    0.070159067
   8   B   :   -0.114072188    0.019782881   -0.015548464
   9   B   :   -0.045861284   -0.527288933   -0.029252377
  10   B   :    0.010440571   -0.024711623   -0.060152018
  11   B   :   -0.052186464   -0.006518080   -0.054893650
  12   B   :    0.002606206    0.498840587    0.038046842

Difference to translation invariance:
           :    0.0000000000    0.0000000000   -0.0000000000

Difference to rotation invariance:
           :    0.0000000055    0.0000000034    0.0000000107

Norm of the Cartesian gradient     ...    0.7709918441
RMS gradient                       ...    0.1284986407
MAX gradient                       ...    0.5272889330
------------------------------------------------------------------------------
                         ORCA GEOMETRY RELAXATION STEP
------------------------------------------------------------------------------

Reading the OPT-File                    .... done
Getting information on internals        .... done
Copying old internal coords+grads       .... done
Making the new internal coordinates     .... (2022 redundants) done
Validating the new internal coordinates .... (2022 redundants) done
Calculating the B-matrix                .... done
Calculating the G,G- and P matrices     .... done
Transforming gradient to internals      .... done
Projecting the internal gradient        .... done
Number of atoms                         ....  12
Number of internal coordinates          .... 209
Current Energy                          ....   -13.376478351 Eh
Current gradient norm                   ....     0.770991844 Eh/bohr
Maximum allowed component of the step   ....  0.300
Current trust radius                    ....  0.300
Evaluating the initial hessian          ....  (Almloef) done
Projecting the Hessian                  .... done
Forming the augmented Hessian           .... done
Diagonalizing the augmented Hessian     .... done
Last element of RFO vector              ....  0.838393853
Lowest eigenvalues of augmented Hessian:
 -0.231210701  0.016755579  0.018823270  0.020641636  0.024168319
Length of the computed step             ....  0.650129889
Warning: the length of the step is outside the trust region - taking restricted step instead
The input lambda is                     ....     0.015369
   iter:   5  x=    0.004933  g=24127.261395 f(x)=   106.072639
   iter:  10  x=   -0.113031  g=   43.823088 f(x)=     2.180215
   iter:  15  x=   -0.760834  g=    0.213871 f(x)=     0.022411
   iter:  20  x=   -0.783456  g=    0.144635 f(x)=     0.000000
The output lambda is                    ....    -0.783456 (20 iterations)
The final length of the internal step   ....  0.300000000
Converting the step to Cartesian space:
 Initial RMS(Int)=    0.0207514339
Transforming coordinates:
 Iter   0:  RMS(Cart)=    0.0377941140 RMS(Int)=    0.0207378514
done
Storing new coordinates                 .... done

                                .--------------------.
          ----------------------|Geometry convergence|-------------------------
          Item                value                   Tolerance       Converged
          ---------------------------------------------------------------------
          RMS gradient        0.0317963021            0.0000300000      NO
          MAX gradient        0.3534283723            0.0001000000      NO
          RMS step            0.0207514339            0.0006000000      NO
          MAX step            0.1881918878            0.0010000000      NO
          -------------------------------------------------------------------------
          ........................................................
          Max(Bonds)      0.0996      Max(Angles)    2.69
          Max(Dihed)        1.48      Max(Improp)    0.00
          ---------------------------------------------------------------------

The optimization has not yet converged - more geometry cycles are needed


    ---------------------------------------------------------------------------
                         Redundant Internal Coordinates
                            (Angstroem and degrees)

        Definition                    Value    dE/dq     Step     New-Value
    ----------------------------------------------------------------------------
     1. B(B   2,B   1)                2.6263  0.044100 -0.0283    2.5980   
     2. B(B   3,B   1)                3.0512  0.024655 -0.0180    3.0332   
     3. B(B   4,B   2)                2.2568  0.010538 -0.0157    2.2410   
     4. B(B   5,B   3)                1.8598  0.056385 -0.0348    1.8250   
     5. B(B   5,B   1)                2.8463  0.024379 -0.0126    2.8337   
     6. B(B   6,B   1)                2.4133  0.041097 -0.0287    2.3846   
     7. B(B   6,B   3)                2.6211  0.006571 -0.0112    2.6099   
     8. B(B   7,B   3)                1.8375  0.067216 -0.0386    1.7990   
     9. B(B   7,B   6)                2.1826  0.022926 -0.0215    2.1610   
    10. B(B   8,B   3)                2.6406  0.031832 -0.0143    2.6263   
    11. B(B   8,B   4)                2.1789 -0.016605  0.0005    2.1794   
    12. B(B   9,B   3)                2.3098  0.029361 -0.0186    2.2912   
    13. B(B   9,B   5)                2.1951  0.050185 -0.0319    2.1632   
    14. B(B   9,B   4)                1.5069 -0.035754  0.0075    1.5144   
    15. B(B   9,B   8)                2.2942  0.042435 -0.0176    2.2765   
    16. B(B  10,B   2)                2.1893  0.046124 -0.0258    2.1635   
    17. B(B  10,B   0)                1.4637 -0.032337  0.0092    1.4729   
    18. B(B  10,B   6)                2.5123  0.008518 -0.0140    2.4984   
    19. B(B  11,B  10)                1.9871  0.037284 -0.0096    1.9775   
    20. B(B  11,B   8)                1.2241 -0.353428  0.0996    1.3236   
    21. B(B  11,B   0)                1.5144  0.003326  0.0028    1.5172   
    22. B(B  11,B   4)                2.1904 -0.027389  0.0031    2.1934   
    23. A(B  10,B   0,B  11)           83.69  0.026789   -0.91     82.78   
    24. A(B   2,B   1,B   5)          102.15 -0.007184   -0.01    102.14   
    25. A(B   3,B   1,B   5)           36.56  0.007813   -0.51     36.05   
    26. A(B   5,B   1,B   6)           90.44  0.001967   -0.24     90.20   
    27. A(B   2,B   1,B   6)           80.52 -0.000110    0.09     80.61   
    28. A(B   3,B   1,B   6)           55.87 -0.004639    0.20     56.07   
    29. A(B   2,B   1,B   3)           84.37 -0.011308    0.35     84.71   
    30. A(B   1,B   2,B   4)           95.58  0.003810    0.04     95.62   
    31. A(B   1,B   2,B  10)           96.90 -0.011149    0.37     97.27   
    32. A(B   4,B   2,B  10)           90.87 -0.028587    1.34     92.21   
    33. A(B   1,B   3,B   8)          105.88 -0.008700    0.19    106.07   
    34. A(B   8,B   3,B   9)           54.73  0.003477   -0.08     54.64   
    35. A(B   7,B   3,B   9)          139.23 -0.000531    0.10    139.33   
    36. A(B   1,B   3,B   6)           49.65  0.005344   -0.35     49.30   
    37. A(B   1,B   3,B   7)          104.93  0.007603   -0.59    104.34   
    38. A(B   1,B   3,B   5)           65.72 -0.002158    0.29     66.01   
    39. A(B   5,B   3,B   6)          112.32  0.001479    0.02    112.34   
    40. A(B   6,B   3,B   9)          113.44  0.003988   -0.17    113.28   
    41. A(B   6,B   3,B   8)           99.53 -0.012118    0.35     99.89   
    42. A(B   5,B   3,B   7)          156.26  0.000232   -0.04    156.22   
    43. A(B   7,B   3,B   8)           86.66 -0.008806    0.39     87.06   
    44. A(B   1,B   3,B   9)           77.45 -0.000541    0.06     77.52   
    45. A(B   5,B   3,B   8)          116.59  0.008658   -0.38    116.20   
    46. A(B   6,B   3,B   7)           55.30  0.002199   -0.23     55.07   
    47. A(B   5,B   3,B   9)           62.44  0.003198   -0.23     62.20   
    48. A(B   8,B   4,B   9)           74.50  0.026744   -0.87     73.62   
    49. A(B   2,B   4,B  11)           80.33  0.040038   -1.34     78.99   
    50. A(B   2,B   4,B   8)          105.45 -0.027406    0.78    106.23   
    51. A(B   2,B   4,B   9)          115.06 -0.004915    0.18    115.23   
    52. A(B   9,B   4,B  11)          103.70 -0.050216    1.53    105.23   
    53. A(B   8,B   4,B  11)           32.54 -0.086051    2.69     35.23   
    54. A(B   1,B   5,B   9)           83.86 -0.004631    0.23     84.08   
    55. A(B   1,B   5,B   3)           77.73 -0.005655    0.22     77.95   
    56. A(B   3,B   5,B   9)           68.88 -0.009585    0.64     69.52   
    57. A(B   1,B   6,B   3)           74.48 -0.000705    0.15     74.64   
    58. A(B   1,B   6,B  10)           94.43 -0.000652    0.03     94.46   
    59. A(B   1,B   6,B   7)          118.26  0.014055   -0.62    117.65   
    60. A(B   3,B   6,B  10)           85.64 -0.037820    1.41     87.05   
    61. A(B   3,B   6,B   7)           43.81  0.014695   -0.77     43.04   
    62. A(B   7,B   6,B  10)           84.17 -0.036241    1.37     85.54   
    63. A(B   3,B   7,B   6)           80.89 -0.016895    1.00     81.89   
    64. A(B   9,B   8,B  11)          109.45  0.028270   -0.90    108.55   
    65. A(B   3,B   8,B   9)           55.28 -0.000869   -0.12     55.16   
    66. A(B   3,B   8,B   4)           84.06 -0.001079   -0.12     83.94   
    67. A(B   4,B   8,B  11)           74.25  0.040032   -1.27     72.97   
    68. A(B   3,B   8,B  11)          111.29  0.026979   -0.93    110.36   
    69. A(B   4,B   8,B   9)           39.27 -0.012202    0.40     39.66   
    70. A(B   3,B   9,B   5)           48.69  0.006387   -0.41     48.27   
    71. A(B   3,B   9,B   8)           69.99 -0.002608    0.20     70.19   
    72. A(B   3,B   9,B   4)          114.84  0.005986   -0.17    114.67   
    73. A(B   4,B   9,B   8)           66.24 -0.014542    0.48     66.71   
    74. A(B   5,B   9,B   8)          118.11  0.005748   -0.28    117.83   
    75. A(B   4,B   9,B   5)          142.26  0.013462   -0.50    141.76   
    76. A(B   2,B  10,B   6)           87.54  0.005948   -0.23     87.31   
    77. A(B   6,B  10,B  11)          115.84  0.002550   -0.24    115.60   
    78. A(B   0,B  10,B   6)          161.20 -0.007527    0.21    161.41   
    79. A(B   2,B  10,B  11)           86.63  0.021214   -0.88     85.75   
    80. A(B   0,B  10,B   2)          101.38  0.007103   -0.26    101.12   
    81. A(B   0,B  10,B  11)           49.24 -0.006735    0.33     49.57   
    82. A(B   4,B  11,B  10)           98.52 -0.019462    0.49     99.01   
    83. A(B   8,B  11,B  10)          126.32  0.022420   -0.65    125.67   
    84. A(B   0,B  11,B   8)          164.23  0.000071    0.01    164.25   
    85. A(B   4,B  11,B   8)           73.22  0.046020   -1.42     71.80   
    86. A(B   0,B  11,B   4)          119.87 -0.044381    1.33    121.19   
    87. A(B   0,B  11,B  10)           47.07 -0.020054    0.58     47.64   
    88. D(B   4,B   2,B   1,B   6)     97.76 -0.000299    0.11     97.87   
    89. D(B   4,B   2,B   1,B   5)      9.36 -0.003559    0.34      9.70   
    90. D(B  10,B   2,B   1,B   3)    -50.07  0.032471   -1.44    -51.52   
    91. D(B  10,B   2,B   1,B   6)      6.20  0.029295   -1.29      4.92   
    92. D(B  10,B   2,B   1,B   5)    -82.20  0.026035   -1.06    -83.25   
    93. D(B   7,B   3,B   1,B   6)      1.66 -0.002341    0.10      1.76   
    94. D(B   9,B   3,B   1,B   6)   -136.38 -0.001434   -0.03   -136.41   
    95. D(B   9,B   3,B   1,B   5)     65.19  0.003802   -0.29     64.90   
    96. D(B   5,B   3,B   1,B   2)   -119.22  0.002254    0.13   -119.08   
    97. D(B   7,B   3,B   1,B   2)     84.01  0.005150   -0.02     83.98   
    98. D(B   7,B   3,B   1,B   5)   -156.78  0.002895   -0.16   -156.93   
    99. D(B   5,B   3,B   1,B   6)    158.44 -0.005236    0.26    158.69   
   100. D(B   9,B   3,B   1,B   2)    -54.03  0.006057   -0.16    -54.19   
   101. D(B   8,B   4,B   2,B   1)    -89.41 -0.017749    0.42    -88.99   
   102. D(B  11,B   4,B   2,B  10)    -13.27  0.023067   -0.76    -14.04   
   103. D(B   9,B   4,B   2,B  10)     87.42 -0.014352    0.32     87.74   
   104. D(B   8,B   4,B   2,B  10)      7.61 -0.031716    0.93      8.54   
   105. D(B   9,B   4,B   2,B   1)     -9.60 -0.000384   -0.19     -9.79   
   106. D(B   1,B   5,B   3,B   8)    -96.31  0.014758   -0.52    -96.82   
   107. D(B   9,B   5,B   3,B   6)    105.71  0.004898   -0.27    105.44   
   108. D(B   1,B   5,B   3,B   7)     71.13  0.015346   -0.85     70.28   
   109. D(B   9,B   5,B   1,B   2)     -6.99  0.006020   -0.40     -7.39   
   110. D(B   9,B   5,B   3,B   8)     -8.22  0.013811   -0.48     -8.71   
   111. D(B   9,B   5,B   1,B   3)    -69.67  0.008732   -0.61    -70.28   
   112. D(B   9,B   5,B   3,B   7)    159.21  0.014399   -0.82    158.40   
   113. D(B   1,B   5,B   3,B   9)    -88.09  0.000947   -0.03    -88.12   
   114. D(B   3,B   5,B   1,B   2)     62.68 -0.002712    0.21     62.89   
   115. D(B   9,B   5,B   3,B   1)     88.09 -0.000947    0.03     88.12   
   116. D(B   3,B   5,B   1,B   6)    -17.71 -0.003232    0.17    -17.55   
   117. D(B   9,B   5,B   1,B   6)    -87.38  0.005500   -0.44    -87.82   
   118. D(B   7,B   6,B   1,B   2)    -91.13  0.014601   -0.40    -91.53   
   119. D(B  10,B   6,B   3,B   7)     86.12 -0.013115    0.52     86.64   
   120. D(B   7,B   6,B   3,B   1)    178.05  0.002873   -0.13    177.92   
   121. D(B  10,B   6,B   1,B   5)     96.87 -0.034001    1.18     98.05   
   122. D(B   7,B   6,B   3,B   8)    -79.16  0.001440   -0.16    -79.32   
   123. D(B   7,B   6,B   3,B   9)   -134.73  0.002985   -0.23   -134.96   
   124. D(B   7,B   6,B   3,B   5)    156.82 -0.002133    0.07    156.89   
   125. D(B  10,B   6,B   1,B   3)     84.22 -0.039342    1.48     85.70   
   126. D(B  10,B   6,B   3,B   5)   -117.06 -0.015248    0.59   -116.47   
   127. D(B  10,B   6,B   3,B   8)      6.96 -0.011675    0.36      7.32   
   128. D(B  10,B   6,B   1,B   2)     -5.38 -0.026385    1.15     -4.23   
   129. D(B  10,B   6,B   3,B   9)    -48.60 -0.010130    0.29    -48.32   
   130. D(B   7,B   6,B   1,B   3)     -1.53  0.001645   -0.07     -1.60   
   131. D(B   7,B   6,B   1,B   5)     11.11  0.006985   -0.37     10.74   
   132. D(B   3,B   7,B   6,B  10)    -89.77  0.018430   -0.69    -90.46   
   133. D(B   6,B   7,B   3,B   1)     -1.54  0.002089   -0.09     -1.63   
   134. D(B   6,B   7,B   3,B   8)    104.01 -0.009107    0.20    104.22   
   135. D(B   6,B   7,B   3,B   9)     86.45  0.009883   -0.65     85.81   
   136. D(B   6,B   7,B   3,B   5)    -64.75 -0.010389    0.54    -64.21   
   137. D(B   3,B   7,B   6,B   1)      2.13 -0.002869    0.13      2.26   
   138. D(B   9,B   8,B   4,B   2)    112.29  0.004876   -0.12    112.17   
   139. D(B  11,B   8,B   4,B   2)    -40.80  0.001619    0.01    -40.79   
   140. D(B  11,B   8,B   3,B   1)     38.03  0.007797   -0.41     37.62   
   141. D(B   4,B   8,B   3,B   7)   -137.07 -0.034451    1.32   -135.75   
   142. D(B   4,B   8,B   3,B   5)     37.90 -0.034217    1.18     39.08   
   143. D(B  11,B   8,B   4,B   9)   -153.09 -0.003257    0.13   -152.96   
   144. D(B  11,B   8,B   3,B   6)    -12.57  0.004887   -0.12    -12.69   
   145. D(B  11,B   8,B   3,B   9)     99.48  0.017848   -0.56     98.92   
   146. D(B  11,B   8,B   3,B   7)    -66.55  0.002465    0.09    -66.46   
   147. D(B   9,B   8,B   4,B  11)    153.09  0.003257   -0.13    152.96   
   148. D(B   4,B   8,B   3,B   9)     28.96 -0.019068    0.66     29.63   
   149. D(B   3,B   8,B   4,B   9)    -38.97  0.016279   -0.51    -39.48   
   150. D(B  11,B   8,B   3,B   5)    108.41  0.002699   -0.05    108.37   
   151. D(B   3,B   8,B   4,B  11)    114.12  0.019536   -0.64    113.48   
   152. D(B   3,B   9,B   8,B  11)   -102.93 -0.015295    0.60   -102.33   
   153. D(B   5,B   9,B   8,B   3)     -7.67  0.012611   -0.42     -8.08   
   154. D(B   5,B   9,B   8,B  11)   -110.60 -0.002684    0.19   -110.41   
   155. D(B   4,B   9,B   8,B   3)    130.45  0.023034   -0.82    129.63   
   156. D(B   4,B   9,B   8,B  11)     27.51  0.007739   -0.22     27.30   
   157. D(B   3,B   9,B   5,B   1)     79.19 -0.003997    0.13     79.31   
   158. D(B   8,B   9,B   5,B   1)     88.79 -0.020966    0.72     89.52   
   159. D(B   8,B   9,B   5,B   3)      9.61 -0.016969    0.60     10.20   
   160. D(B   4,B   9,B   5,B   1)      2.01 -0.009763    0.50      2.51   
   161. D(B   4,B   9,B   5,B   3)    -77.17 -0.005766    0.37    -76.80   
   162. D(B   3,B   9,B   4,B   8)     52.00 -0.022800    0.89     52.88   
   163. D(B   5,B   9,B   4,B   2)      5.70  0.008838   -0.30      5.39   
   164. D(B   5,B   9,B   4,B  11)     91.29  0.030190   -1.09     90.20   
   165. D(B   5,B   9,B   4,B   8)    105.80 -0.009548    0.17    105.97   
   166. D(B   8,B   9,B   4,B   2)   -100.10  0.018385   -0.47   -100.57   
   167. D(B   8,B   9,B   4,B  11)    -14.51  0.039738   -1.26    -15.77   
   168. D(B   8,B   9,B   3,B   6)     85.09 -0.017270    0.55     85.64   
   169. D(B   8,B   9,B   3,B   7)     21.65 -0.025000    1.10     22.75   
   170. D(B   8,B   9,B   3,B   5)   -170.99 -0.016238    0.57   -170.42   
   171. D(B   4,B   9,B   3,B   1)     69.93  0.013918   -0.73     69.20   
   172. D(B   4,B   9,B   3,B   6)     34.96  0.010586   -0.44     34.52   
   173. D(B   5,B   9,B   8,B   4)   -138.11 -0.010423    0.40   -137.71   
   174. D(B   4,B   9,B   3,B   8)    -50.13  0.027856   -0.99    -51.12   
   175. D(B   4,B   9,B   3,B   7)    -28.48  0.002856    0.10    -28.37   
   176. D(B   4,B   9,B   3,B   5)    138.88  0.011618   -0.42    138.46   
   177. D(B  11,B  10,B   6,B   1)    -78.69  0.004685   -0.28    -78.96   
   178. D(B  11,B  10,B   6,B   3)     -4.65  0.000170    0.02     -4.63   
   179. D(B  11,B  10,B   6,B   7)     39.32  0.017658   -0.85     38.46   
   180. D(B   0,B  10,B   6,B   1)   -112.76 -0.001644    0.00   -112.76   
   181. D(B   0,B  10,B   6,B   3)    -38.73 -0.006159    0.30    -38.43   
   182. D(B   0,B  10,B   6,B   7)      5.24  0.011329   -0.58      4.66   
   183. D(B   6,B  10,B   2,B   4)   -101.60 -0.028493    1.04   -100.57   
   184. D(B  11,B  10,B   2,B   1)    110.20 -0.028058    1.10    111.30   
   185. D(B  11,B  10,B   2,B   4)     14.47 -0.028071    0.88     15.35   
   186. D(B   0,B  10,B   2,B   1)    157.43 -0.030078    1.23    158.66   
   187. D(B   0,B  10,B   2,B   4)     61.71 -0.030092    1.01     62.72   
   188. D(B   6,B  10,B   0,B  11)     41.74  0.012424   -0.52     41.22   
   189. D(B   2,B  10,B   0,B  11)    -75.37 -0.019857    0.84    -74.53   
   190. D(B   4,B  11,B  10,B   0)   -123.25  0.035183   -1.16   -124.41   
   191. D(B   8,B  11,B  10,B   6)     -4.86  0.002038   -0.09     -4.95   
   192. D(B   8,B  11,B  10,B   2)    -90.48 -0.014750    0.58    -89.90   
   193. D(B   0,B  11,B  10,B   6)   -166.21  0.009149   -0.32   -166.53   
   194. D(B   0,B  11,B  10,B   2)    108.16 -0.007639    0.35    108.51   
   195. D(B  10,B  11,B   8,B   3)     11.33 -0.005112    0.15     11.48   
   196. D(B  10,B  11,B   8,B   9)     70.62  0.005663   -0.36     70.26   
   197. D(B  10,B  11,B   8,B   4)     88.31  0.002040   -0.22     88.09   
   198. D(B   0,B  11,B   8,B   3)     70.82 -0.000585   -0.01     70.80   
   199. D(B   0,B  11,B   8,B   9)    130.11  0.010190   -0.53    129.58   
   200. D(B   0,B  11,B   8,B   4)    147.80  0.006568   -0.39    147.41   
   201. D(B  10,B  11,B   4,B   9)    -98.80 -0.032782    0.96    -97.84   
   202. D(B   8,B  11,B   4,B   2)    140.29  0.000933    0.00    140.29   
   203. D(B   8,B  11,B   4,B   9)     26.67 -0.005647    0.20     26.87   
   204. D(B   0,B  11,B   4,B   2)    -30.10 -0.005193    0.23    -29.87   
   205. D(B   8,B  11,B  10,B   0)    161.35 -0.007111    0.23    161.58   
   206. D(B   0,B  11,B   4,B   8)   -170.39 -0.006125    0.23   -170.16   
   207. D(B   0,B  11,B   4,B   9)   -143.71 -0.011772    0.42   -143.29   
   208. D(B   4,B  11,B   0,B  10)     72.49  0.001586   -0.22     72.27   
   209. D(B   8,B  11,B   0,B  10)    -71.46 -0.014448    0.47    -70.99   
    ----------------------------------------------------------------------------

Geometry step timings:
Preparation and reading OPT file:      0.000 s ( 0.233 %)
Internal coordinates            :      0.000 s ( 0.381 %)
B/P matrices and projection     :      0.004 s (21.396 %)
Hessian update/contruction      :      0.003 s (18.133 %)
Making the step                 :      0.008 s (47.689 %)
Converting the step to Cartesian:      0.000 s ( 2.115 %)
Storing new data                :      0.000 s ( 0.546 %)
Checking convergence            :      0.000 s ( 0.495 %)
Final printing                  :      0.002 s ( 9.012 %)
Total time                      :      0.018 s

Time for energy+gradient        :      0.107 s
Time for complete geometry iter :      0.127 s

         *************************************************************
         *                GEOMETRY OPTIMIZATION CYCLE   2            *
         *************************************************************
---------------------------------
CARTESIAN COORDINATES (ANGSTROEM)
---------------------------------
  B    -1.192602   -2.058304   -1.468788
  B     1.684488   -0.310085    2.001636
  B     1.308766   -1.683800   -0.171281
  B    -0.364583    1.589432    0.821176
  B     1.246553    0.087777   -1.542466
  B     1.271317    2.346552    1.106360
  B    -0.673193   -0.635660    2.149689
  B    -1.950615    0.875290    1.280178
  B    -0.835128    0.729111   -1.615167
  B     1.190660    1.435493   -0.854006
  B    -0.849828   -1.781763   -0.063255
  B    -0.835834   -0.594044   -1.644077

----------------------------
CARTESIAN COORDINATES (A.U.)
----------------------------
  NO LB    ZA    FRAG    MASS        X           Y           Z
   0 B   5.0000    0    10.810   -2.253691   -3.889630   -2.775607
   1 B   5.0000    0    10.810    3.183220   -0.585975    3.782544
   2 B   5.0000    0    10.810    2.473210   -3.181920   -0.323674
   3 B   5.0000    0    10.810   -0.688963    3.003592    1.551798
   4 B   5.0000    0    10.810    2.355643    0.165874   -2.914838
   5 B   5.0000    0    10.810    2.402440    4.434340    2.090717
   6 B   5.0000    0    10.810   -1.272151   -1.201223    4.062323
   7 B   5.0000    0    10.810   -3.686128    1.654058    2.419187
   8 B   5.0000    0    10.810   -1.578162    1.377820   -3.052224
   9 B   5.0000    0    10.810    2.250022    2.712689   -1.613838
  10 B   5.0000    0    10.810   -1.605942   -3.367043   -0.119534
  11 B   5.0000    0    10.810   -1.579498   -1.122580   -3.106855

      -----------------------------------------------------------      
     |                   =====================                   |     
     |                           x T B                           |     
     |                   =====================                   |     
     |                         S. Grimme                         |     
     |          Mulliken Center for Theoretical Chemistry        |     
     |                    University of Bonn                     |     
      -----------------------------------------------------------      

   * xtb version 6.6.1 (unknown) compiled by 'builduser@buildhost' on 2023-08-07

   xtb is free software: you can redistribute it and/or modify it under
   the terms of the GNU Lesser General Public License as published by
   the Free Software Foundation, either version 3 of the License, or
   (at your option) any later version.
   
   xtb is distributed in the hope that it will be useful,
   but WITHOUT ANY WARRANTY; without even the implied warranty of
   MERCHANTABILITY or FITNESS FOR A PARTICULAR PURPOSE.  See the
   GNU Lesser General Public License for more details.
   
   Cite this work as:
   * C. Bannwarth, E. Caldeweyher, S. Ehlert, A. Hansen, P. Pracht,
     J. Seibert, S. Spicher, S. Grimme, WIREs Comput. Mol. Sci., 2020, 11,
     e01493. DOI: 10.1002/wcms.1493
   
   for GFN2-xTB:
   * C. Bannwarth, S. Ehlert and S. Grimme., J. Chem. Theory Comput., 2019,
     15, 1652-1671. DOI: 10.1021/acs.jctc.8b01176
   for GFN1-xTB:
   * S. Grimme, C. Bannwarth, P. Shushkov, J. Chem. Theory Comput., 2017,
     13, 1989-2009. DOI: 10.1021/acs.jctc.7b00118
   for GFN0-xTB:
   * P. Pracht, E. Caldeweyher, S. Ehlert, S. Grimme, ChemRxiv, 2019, preprint.
     DOI: 10.26434/chemrxiv.8326202.v1
   for GFN-FF:
   * S. Spicher and S. Grimme, Angew. Chem. Int. Ed., 2020, 59, 15665-15673.
     DOI: 10.1002/anie.202004239
   
   for ALPB and GBSA implicit solvation:
   * S. Ehlert, M. Stahn, S. Spicher, S. Grimme, J. Chem. Theory Comput.,
     2021, 17, 4250-4261. DOI: 10.1021/acs.jctc.1c00471
   
   for DFT-D4:
   * E. Caldeweyher, C. Bannwarth and S. Grimme, J. Chem. Phys., 2017,
     147, 034112. DOI: 10.1063/1.4993215
   * E. Caldeweyher, S. Ehlert, A. Hansen, H. Neugebauer, S. Spicher,
     C. Bannwarth and S. Grimme, J. Chem. Phys., 2019, 150, 154122.
     DOI: 10.1063/1.5090222
   * E. Caldeweyher, J.-M. Mewes, S. Ehlert and S. Grimme, Phys. Chem. Chem. Phys.
     2020, 22, 8499-8512. DOI: 10.1039/D0CP00502A
   
   for sTDA-xTB:
   * S. Grimme and C. Bannwarth, J. Chem. Phys., 2016, 145, 054103.
     DOI: 10.1063/1.4959605
   
   in the mass-spec context:
   * V. Asgeirsson, C. Bauer and S. Grimme, Chem. Sci., 2017, 8, 4879.
     DOI: 10.1039/c7sc00601b
   * J. Koopman and S. Grimme, ACS Omega 2019, 4, 12, 15120-15133.
     DOI: 10.1021/acsomega.9b02011
   
   for metadynamics refer to:
   * S. Grimme, J. Chem. Theory Comput., 2019, 155, 2847-2862
     DOI: 10.1021/acs.jctc.9b00143
   
   for SPH calculations refer to:
   * S. Spicher and S. Grimme, J. Chem. Theory Comput., 2021, 17, 1701-1714
     DOI: 10.1021/acs.jctc.0c01306
   
   with help from (in alphabetical order)
   P. Atkinson, C. Bannwarth, F. Bohle, G. Brandenburg, E. Caldeweyher
   M. Checinski, S. Dohm, S. Ehlert, S. Ehrlich, I. Gerasimov, C. Hölzer
   A. Katbashev, J. Koopman, C. Lavigne, S. Lehtola, F. März, M. Müller,
   F. Musil, H. Neugebauer, J. Pisarek, C. Plett, P. Pracht, F. Pultar,
   J. Seibert, P. Shushkov, S. Spicher, M. Stahn, M. Steiner, T. Strunk,
   J. Stückrath, T. Rose, and J. Unsleber
   
 * started run on 2026/04/17 at 12:14:37.651     

           -------------------------------------------------
          |                Calculation Setup                |
           -------------------------------------------------

          program call               : /usr/bin/xtb random_d1.70_001_m3_XTB.xyz --grad -c 0 -u 2 -P 1 --namespace random_d1.70_001_m3 --input random_d1.70_001_m3_XTB.input.tmp --acc 0.200000
          calculation namespace      : random_d1.70_001_m3
          coordinate file            : random_d1.70_001_m3_XTB.xyz
          omp threads                :                     1

   ID    Z sym.   atoms
    1    5 B      1-12

molecular fragmentation (1/2 indicates fragments):
121111211111
# atoms in fragment 1/2:    10     2
 fragment masses (1/2) :      108.11       21.62
CMA distance (Bohr)    :   4.962
constraining FC (au)   :  0.0500

           -------------------------------------------------
          |                 G F N 2 - x T B                 |
           -------------------------------------------------

        Reference                      10.1021/acs.jctc.8b01176
      * Hamiltonian:
        H0-scaling (s, p, d)           1.850000    2.230000    2.230000
        zeta-weighting                 0.500000
      * Dispersion:
        s8                             2.700000
        a1                             0.520000
        a2                             5.000000
        s9                             5.000000
      * Repulsion:
        kExp                           1.500000    1.000000
        rExp                           1.000000
      * Coulomb:
        alpha                          2.000000
        third order                    shell-resolved
        anisotropic                    true
        a3                             3.000000
        a5                             4.000000
        cn-shift                       1.200000
        cn-exp                         4.000000
        max-rad                        5.000000

q/qsh data taken from xtbrestart
CAMM data taken from xtbrestart

          ...................................................
          :                      SETUP                      :
          :.................................................:
          :  # basis functions                  48          :
          :  # atomic orbitals                  48          :
          :  # shells                           24          :
          :  # electrons                        36          :
          :  max. iterations                   250          :
          :  Hamiltonian                  GFN2-xTB          :
          :  restarted?                       true          :
          :  GBSA solvation                  false          :
          :  PC potential                    false          :
          :  electronic temp.          300.0000000     K    :
          :  accuracy                    0.2000000          :
          :  -> integral cutoff          0.3198970E+02      :
          :  -> integral neglect         0.2000000E-08      :
          :  -> SCF convergence          0.2000000E-06 Eh   :
          :  -> wf. convergence          0.2000000E-04 e    :
          :  Broyden damping             0.4000000          :
          ...................................................

 iter      E             dE          RMSdq      gap      omega  full diag
   1    -13.6459159 -0.136459E+02  0.105E+00    0.22       0.0  T
   2    -13.4835312  0.162385E+00  0.261E+00    0.16       1.0  T
   3    -13.5728533 -0.893221E-01  0.179E+00    0.29       1.0  T
   4    -13.4216311  0.151222E+00  0.333E+00    0.07       1.0  T
   5    -13.6311814 -0.209550E+00  0.960E-01    0.21       1.0  T
   6    -13.5754883  0.556932E-01  0.173E+00    0.11       1.0  T
   7    -13.6330282 -0.575399E-01  0.751E-01    0.18       1.0  T
   8    -13.6485808 -0.155526E-01  0.273E-01    0.22       1.0  T
   9    -13.6482210  0.359811E-03  0.300E-01    0.21       1.0  T
  10    -13.6495793 -0.135835E-02  0.202E-01    0.21       1.0  T
  11    -13.6495440  0.353763E-04  0.182E-01    0.21       1.0  T
  12    -13.6496191 -0.751332E-04  0.170E-01    0.21       1.0  T
  13    -13.6496342 -0.150811E-04  0.135E-01    0.22       1.0  T
  14    -13.6497159 -0.817070E-04  0.119E-01    0.21       1.0  T
  15    -13.6497431 -0.271614E-04  0.109E-01    0.21       1.0  T
  16    -13.6498129 -0.698439E-04  0.844E-02    0.21       1.0  T
  17    -13.6498261 -0.131629E-04  0.728E-02    0.21       1.0  T
  18    -13.6498356 -0.951724E-05  0.652E-02    0.21       1.0  T
  19    -13.6498642 -0.286616E-04  0.441E-02    0.21       1.0  T
  20    -13.6498744 -0.101555E-04  0.337E-02    0.21       1.0  T
  21    -13.6498864 -0.120465E-04  0.179E-02    0.21       1.6  T
  22    -13.6498893 -0.287046E-05  0.947E-03    0.21       3.0  T
  23    -13.6498903 -0.100933E-05  0.188E-03    0.21      15.3  T
  24    -13.6498904 -0.320156E-07  0.125E-03    0.21      23.1  T
  25    -13.6498904 -0.171934E-07  0.685E-04    0.21      42.2  T
  26    -13.6498904 -0.486147E-08  0.141E-04    0.21     204.6  T
  27    -13.6498904 -0.204894E-09  0.474E-05    0.21     608.7  T

   *** convergence criteria satisfied after 27 iterations ***

         #    Occupation            Energy/Eh            Energy/eV
      -------------------------------------------------------------
         1        2.0000           -0.4063217             -11.0566
       ...           ...                  ...                  ...
        13        2.0000           -0.2663732              -7.2484
        14        2.0000           -0.2586006              -7.0369
        15        2.0000           -0.2525797              -6.8730
        16        2.0000           -0.2503647              -6.8128
        17        1.9846           -0.2402137              -6.5365
        18        1.0121           -0.2322122              -6.3188
        19        0.9855           -0.2301182              -6.2618 (HOMO)
        20        0.0178           -0.2224005              -6.0518 (LUMO)
        21        0.0000           -0.2140484              -5.8246
        22                         -0.2100698              -5.7163
        23                         -0.2035305              -5.5383
        24                         -0.1930965              -5.2544
[...]
    23. A(B  10,B   0,B  11)          143.90 -0.000094   -0.23    143.67   
    24. A(B   2,B   1,B   5)           57.65 -0.000091   -0.08     57.58   
    25. A(B   3,B   1,B   5)           21.85 -0.000012   -0.04     21.81   
    26. A(B   5,B   1,B   6)           64.09  0.000049    0.08     64.17   
    27. A(B   2,B   1,B   6)          116.10 -0.000020    0.03    116.12   
    28. A(B   3,B   1,B   6)           43.46  0.000065    0.09     43.56   
    29. A(B   2,B   1,B   3)           79.19 -0.000099   -0.12     79.07   
    30. A(B   1,B   2,B   4)          148.10  0.000116   -0.01    148.08   
    31. A(B   1,B   2,B  10)           57.35 -0.000010   -0.03     57.32   
    32. A(B   4,B   2,B  10)           99.68  0.000120   -0.18     99.50   
    33. A(B   1,B   3,B   8)           70.82  0.000051    0.08     70.90   
    34. A(B   8,B   3,B   9)           14.35 -0.000022    0.13     14.48   
    35. A(B   7,B   3,B   9)          117.47  0.000129    0.26    117.72   
    36. A(B   1,B   3,B   6)           22.43  0.000028    0.04     22.47   
    37. A(B   1,B   3,B   7)           46.10  0.000092    0.06     46.15   
    38. A(B   1,B   3,B   5)           92.56  0.000041    0.28     92.84   
    39. A(B   5,B   3,B   6)          113.19  0.000062    0.34    113.53   
    40. A(B   6,B   3,B   9)           94.88  0.000071    0.17     95.05   
    41. A(B   6,B   3,B   8)           86.62  0.000078    0.12     86.74   
    42. A(B   5,B   3,B   7)          136.60  0.000120    0.36    136.96   
    43. A(B   7,B   3,B   8)          107.19  0.000134    0.15    107.35   
    44. A(B   1,B   3,B   9)           75.95  0.000047    0.12     76.06   
    45. A(B   5,B   3,B   8)           32.70 -0.000047    0.34     33.03   
    46. A(B   6,B   3,B   7)           24.00  0.000065    0.01     24.01   
    47. A(B   5,B   3,B   9)           19.79 -0.000021    0.20     19.99   
    48. A(B   8,B   4,B   9)           53.55  0.000050   -0.03     53.52   
    49. A(B   2,B   4,B  11)          114.56 -0.000046    0.21    114.77   
    50. A(B   2,B   4,B   8)          164.30 -0.000116    0.21    164.51   
    51. A(B   2,B   4,B   9)          131.66  0.000000   -0.07    131.58   
    52. A(B   9,B   4,B  11)           93.77 -0.000084    0.10     93.87   
    53. A(B   8,B   4,B  11)           50.56 -0.000082    0.05     50.60   
    54. A(B   1,B   5,B   9)           80.49  0.000054   -0.06     80.44   
    55. A(B   1,B   5,B   3)           65.59 -0.000029   -0.24     65.35   
    56. A(B   3,B   5,B   9)          140.75  0.000053   -0.39    140.36   
    57. A(B   1,B   6,B   3)          114.11 -0.000093   -0.13    113.97   
    58. A(B   1,B   6,B  10)           61.58 -0.000033    0.02     61.60   
    59. A(B   1,B   6,B   7)          137.12 -0.000054   -0.10    137.02   
    60. A(B   3,B   6,B  10)           97.70 -0.000044   -0.16     97.54   
    61. A(B   3,B   6,B   7)           23.86  0.000039    0.01     23.88   
    62. A(B   7,B   6,B  10)          112.71 -0.000004   -0.14    112.57   
    63. A(B   3,B   7,B   6)          132.14 -0.000104   -0.03    132.11   
    64. A(B   9,B   8,B  11)          116.17 -0.000161    0.15    116.32   
    65. A(B   3,B   8,B   9)           27.40 -0.000049    0.22     27.61   
    66. A(B   3,B   8,B   4)           59.47 -0.000093    0.07     59.54   
    67. A(B   4,B   8,B  11)           69.03  0.000013   -0.05     68.98   
    68. A(B   3,B   8,B  11)           91.29 -0.000121    0.04     91.33   
    69. A(B   4,B   8,B   9)           63.91 -0.000120    0.12     64.03   
    70. A(B   3,B   9,B   5)           19.46 -0.000031    0.19     19.65   
    71. A(B   3,B   9,B   8)          138.25  0.000072   -0.35    137.90   
    72. A(B   3,B   9,B   4)          100.13 -0.000006   -0.19     99.94   
    73. A(B   4,B   9,B   8)           62.54  0.000070   -0.09     62.45   
    74. A(B   5,B   9,B   8)          152.69  0.000030   -0.14    152.55   
    75. A(B   4,B   9,B   5)          117.37 -0.000034   -0.01    117.37   
    76. A(B   2,B  10,B   6)           93.90 -0.000015    0.01     93.91   
    77. A(B   6,B  10,B  11)          140.22 -0.000085    0.11    140.33   
    78. A(B   0,B  10,B   6)          153.47 -0.000081    0.18    153.65   
    79. A(B   2,B  10,B  11)           69.23 -0.000052    0.10     69.33   
    80. A(B   0,B  10,B   2)           84.09 -0.000020    0.18     84.27   
    81. A(B   0,B  10,B  11)           18.02  0.000020    0.11     18.13   
    82. A(B   4,B  11,B  10)           62.43  0.000070   -0.01     62.43   
    83. A(B   8,B  11,B  10)          114.16  0.000186   -0.08    114.08   
    84. A(B   0,B  11,B   8)          131.06  0.000255    0.01    131.08   
    85. A(B   4,B  11,B   8)           60.41  0.000069    0.00     60.42   
    86. A(B   0,B  11,B   4)           80.08  0.000145    0.09     80.17   
    87. A(B   0,B  11,B  10)           18.08  0.000074    0.11     18.20   
    88. D(B   4,B   2,B   1,B   6)      2.38  0.000010   -0.51      1.87   
    89. D(B   4,B   2,B   1,B   5)    -25.23  0.000045   -0.53    -25.76   
    90. D(B  10,B   2,B   1,B   3)    -70.55 -0.000051    0.05    -70.49   
    91. D(B  10,B   2,B   1,B   6)    -46.95 -0.000057    0.03    -46.92   
    92. D(B  10,B   2,B   1,B   5)    -74.56 -0.000022    0.01    -74.55   
    93. D(B   7,B   3,B   1,B   6)      7.49  0.000006   -0.03      7.47   
    94. D(B   9,B   3,B   1,B   6)   -146.78 -0.000006   -0.06   -146.84   
    95. D(B   9,B   3,B   1,B   5)     10.85 -0.000032    0.20     11.05   
    96. D(B   5,B   3,B   1,B   2)     -9.14  0.000070   -0.19     -9.32   
    97. D(B   7,B   3,B   1,B   2)    155.98  0.000051    0.05    156.03   
    98. D(B   7,B   3,B   1,B   5)    165.12 -0.000020    0.23    165.35   
    99. D(B   5,B   3,B   1,B   6)   -157.63  0.000026   -0.26   -157.89   
   100. D(B   9,B   3,B   1,B   2)      1.71  0.000039    0.02      1.73   
   101. D(B   8,B   4,B   2,B   1)    -64.74 -0.000152    1.03    -63.71   
   102. D(B  11,B   4,B   2,B  10)    -41.51  0.000115    0.15    -41.36   
   103. D(B   9,B   4,B   2,B  10)     78.71 -0.000088    0.42     79.13   
   104. D(B   8,B   4,B   2,B  10)    -24.37 -0.000091    0.60    -23.77   
   105. D(B   9,B   4,B   2,B   1)     38.34 -0.000149    0.85     39.19   
   106. D(B   1,B   5,B   3,B   8)    -47.29  0.000038   -0.10    -47.39   
   107. D(B   9,B   5,B   3,B   6)     23.54 -0.000085    0.29     23.83   
   108. D(B   1,B   5,B   3,B   7)    -15.62 -0.000081    0.09    -15.53   
   109. D(B   9,B   5,B   1,B   2)      9.60  0.000013    0.12      9.72   
   110. D(B   9,B   5,B   3,B   8)    -14.65 -0.000022    0.13    -14.53   
   111. D(B   9,B   5,B   1,B   3)   -159.76 -0.000062    0.33   -159.43   
   112. D(B   9,B   5,B   3,B   7)     17.01 -0.000141    0.32     17.33   
   113. D(B   1,B   5,B   3,B   9)    -32.63  0.000060   -0.23    -32.86   
   114. D(B   3,B   5,B   1,B   2)    169.36  0.000075   -0.21    169.15   
   115. D(B   9,B   5,B   3,B   1)     32.63 -0.000060    0.23     32.86   
   116. D(B   3,B   5,B   1,B   6)     16.92  0.000033   -0.17     16.75   
   117. D(B   9,B   5,B   1,B   6)   -142.84 -0.000029    0.16   -142.68   
   118. D(B   7,B   6,B   1,B   2)    -42.76  0.000068    0.12    -42.64   
   119. D(B  10,B   6,B   3,B   7)    131.11  0.000045    0.01    131.12   
   120. D(B   7,B   6,B   3,B   1)    166.64  0.000002    0.04    166.69   
   121. D(B  10,B   6,B   1,B   5)     76.62 -0.000018    0.02     76.64   
   122. D(B   7,B   6,B   3,B   8)   -149.37 -0.000014    0.08   -149.29   
   123. D(B   7,B   6,B   3,B   9)   -161.12  0.000008   -0.01   -161.13   
   124. D(B   7,B   6,B   3,B   5)   -168.92  0.000042   -0.19   -169.11   
   125. D(B  10,B   6,B   1,B   3)     85.68 -0.000017   -0.09     85.59   
   126. D(B  10,B   6,B   3,B   5)    -37.81  0.000088   -0.18    -37.99   
   127. D(B  10,B   6,B   3,B   8)    -18.26  0.000031    0.09    -18.17   
   128. D(B  10,B   6,B   1,B   2)     50.82  0.000054   -0.01     50.81   
   129. D(B  10,B   6,B   3,B   9)    -30.01  0.000053   -0.00    -30.01   
   130. D(B   7,B   6,B   1,B   3)     -7.89 -0.000003    0.04     -7.86   
   131. D(B   7,B   6,B   1,B   5)    -16.96 -0.000004    0.15    -16.81   
   132. D(B   3,B   7,B   6,B  10)    -54.04  0.000048    0.06    -53.99   
   133. D(B   6,B   7,B   3,B   1)     -7.03  0.000004    0.01     -7.02   
   134. D(B   6,B   7,B   3,B   8)     32.17  0.000014    0.12     32.28   
   135. D(B   6,B   7,B   3,B   9)     21.31  0.000033   -0.04     21.27   
   136. D(B   6,B   7,B   3,B   5)     14.90  0.000084   -0.16     14.74   
   137. D(B   3,B   7,B   6,B   1)     18.05 -0.000009   -0.09     17.97   
   138. D(B   9,B   8,B   4,B   2)    115.21  0.000080   -0.27    114.94   
   139. D(B  11,B   8,B   4,B   2)    -20.32  0.000214   -0.48    -20.80   
   140. D(B  11,B   8,B   3,B   1)     47.45 -0.000018    0.02     47.47   
   141. D(B   4,B   8,B   3,B   7)    -45.98 -0.000132   -0.03    -46.01   
   142. D(B   4,B   8,B   3,B   5)    111.84 -0.000018   -0.05    111.79   
   143. D(B  11,B   8,B   4,B   9)   -135.52  0.000134   -0.22   -135.74   
   144. D(B  11,B   8,B   3,B   6)     31.16 -0.000028    0.01     31.17   
   145. D(B  11,B   8,B   3,B   9)    156.23  0.000008    0.04    156.27   
   146. D(B  11,B   8,B   3,B   7)     18.63 -0.000064   -0.07     18.56   
   147. D(B   9,B   8,B   4,B  11)    135.52 -0.000134    0.22    135.74   
   148. D(B   4,B   8,B   3,B   9)     91.63 -0.000060    0.07     91.70   
   149. D(B   3,B   8,B   4,B   9)    -30.80  0.000021   -0.19    -31.00   
   150. D(B  11,B   8,B   3,B   5)    176.45  0.000049   -0.09    176.36   
   151. D(B   3,B   8,B   4,B  11)    104.72 -0.000113    0.02    104.74   
   152. D(B   3,B   9,B   8,B  11)    -26.67  0.000047   -0.07    -26.74   
   153. D(B   5,B   9,B   8,B   3)    -23.59 -0.000029    0.00    -23.59   
   154. D(B   5,B   9,B   8,B  11)    -50.27  0.000018   -0.07    -50.33   
   155. D(B   4,B   9,B   8,B   3)     73.47  0.000020   -0.11     73.37   
   156. D(B   4,B   9,B   8,B  11)     46.80  0.000067   -0.17     46.63   
   157. D(B   3,B   9,B   5,B   1)     29.86 -0.000066    0.21     30.07   
   158. D(B   8,B   9,B   5,B   1)     82.99  0.000034   -0.10     82.89   
   159. D(B   8,B   9,B   5,B   3)     53.13  0.000101   -0.31     52.83   
   160. D(B   4,B   9,B   5,B   1)      0.41 -0.000063    0.16      0.57   
   161. D(B   4,B   9,B   5,B   3)    -29.45  0.000003   -0.05    -29.50   
   162. D(B   3,B   9,B   4,B   8)    139.57  0.000065   -0.29    139.28   
   163. D(B   5,B   9,B   4,B   2)    -11.72  0.000178   -0.40    -12.12   
   164. D(B   5,B   9,B   4,B  11)    116.32  0.000007   -0.08    116.23   
   165. D(B   5,B   9,B   4,B   8)    149.15  0.000049   -0.20    148.95   
   166. D(B   8,B   9,B   4,B   2)   -160.87  0.000130   -0.20   -161.07   
   167. D(B   8,B   9,B   4,B  11)    -32.84 -0.000041    0.12    -32.72   
   168. D(B   8,B   9,B   3,B   6)     55.08 -0.000020   -0.02     55.05   
   169. D(B   8,B   9,B   3,B   7)     46.55 -0.000056    0.01     46.55   
   170. D(B   8,B   9,B   3,B   5)   -146.54  0.000065   -0.27   -146.81   
   171. D(B   4,B   9,B   3,B   1)      7.40 -0.000077    0.18      7.58   
   172. D(B   4,B   9,B   3,B   6)     -4.71 -0.000091    0.20     -4.51   
   173. D(B   5,B   9,B   8,B   4)    -97.07 -0.000049    0.11    -96.96   
   174. D(B   4,B   9,B   3,B   8)    -59.79 -0.000071    0.22    -59.57   
   175. D(B   4,B   9,B   3,B   7)    -13.24 -0.000127    0.23    -13.01   
   176. D(B   4,B   9,B   3,B   5)    153.67 -0.000006   -0.05    153.62   
   177. D(B  11,B  10,B   6,B   1)    -96.45  0.000020   -0.14    -96.59   
   178. D(B  11,B  10,B   6,B   3)     16.85 -0.000060   -0.21     16.63   
   179. D(B  11,B  10,B   6,B   7)     36.14 -0.000043   -0.24     35.91   
   180. D(B   0,B  10,B   6,B   1)   -119.31  0.000027   -0.37   -119.68   
   181. D(B   0,B  10,B   6,B   3)     -6.01 -0.000053   -0.45     -6.46   
   182. D(B   0,B  10,B   6,B   7)     13.29 -0.000036   -0.47     12.82   
   183. D(B   6,B  10,B   2,B   4)   -119.10 -0.000005   -0.17   -119.27   
   184. D(B  11,B  10,B   2,B   1)    179.84 -0.000026    0.05    179.90   
   185. D(B  11,B  10,B   2,B   4)     23.83 -0.000074   -0.12     23.72   
   186. D(B   0,B  10,B   2,B   1)   -169.65 -0.000036    0.14   -169.51   
   187. D(B   0,B  10,B   2,B   4)     34.34 -0.000083   -0.03     34.31   
   188. D(B   6,B  10,B   0,B  11)     53.45  0.000033    0.30     53.75   
   189. D(B   2,B  10,B   0,B  11)    -33.44  0.000089   -0.05    -33.49   
   190. D(B   4,B  11,B  10,B   0)   -166.63 -0.000039    0.14   -166.49   
   191. D(B   8,B  11,B  10,B   6)     15.12  0.000076    0.17     15.29   
   192. D(B   8,B  11,B  10,B   2)    -54.88  0.000104    0.05    -54.83   
   193. D(B   0,B  11,B  10,B   6)   -145.89  0.000057    0.07   -145.82   
   194. D(B   0,B  11,B  10,B   2)    144.11  0.000085   -0.05    144.06   
   195. D(B  10,B  11,B   8,B   3)    -23.37 -0.000020    0.01    -23.36   
   196. D(B  10,B  11,B   8,B   9)    -11.45 -0.000061    0.15    -11.30   
   197. D(B  10,B  11,B   8,B   4)     33.07 -0.000062    0.06     33.13   
   198. D(B   0,B  11,B   8,B   3)    -15.68  0.000033   -0.01    -15.68   
   199. D(B   0,B  11,B   8,B   9)     -3.76 -0.000008    0.13     -3.62   
   200. D(B   0,B  11,B   8,B   4)     40.76 -0.000008    0.05     40.81   
   201. D(B  10,B  11,B   4,B   9)   -111.45 -0.000031   -0.11   -111.56   
   202. D(B   8,B  11,B   4,B   2)    174.07  0.000020   -0.10    173.97   
   203. D(B   8,B  11,B   4,B   9)     34.39  0.000115   -0.18     34.21   
   204. D(B   0,B  11,B   4,B   2)     24.05 -0.000129   -0.11     23.94   
   205. D(B   8,B  11,B  10,B   0)    161.01  0.000019    0.10    161.11   
   206. D(B   0,B  11,B   4,B   8)   -150.02 -0.000148   -0.01   -150.03   
   207. D(B   0,B  11,B   4,B   9)   -115.63 -0.000033   -0.19   -115.82   
   208. D(B   4,B  11,B   0,B  10)     12.01 -0.000033    0.13     12.15   
   209. D(B   8,B  11,B   0,B  10)    -23.18 -0.000035    0.13    -23.06   
    ----------------------------------------------------------------------------

Geometry step timings:
Preparation and reading OPT file:      0.000 s ( 0.402 %)
Internal coordinates            :      0.000 s ( 0.533 %)
B/P matrices and projection     :      0.003 s (24.789 %)
Hessian update/contruction      :      0.003 s (25.100 %)
Making the step                 :      0.004 s (34.985 %)
Converting the step to Cartesian:      0.000 s ( 2.157 %)
Storing new data                :      0.000 s ( 0.435 %)
Checking convergence            :      0.000 s ( 0.779 %)
Final printing                  :      0.001 s (10.819 %)
Total time                      :      0.012 s

Time for energy+gradient        :      0.067 s
Time for complete geometry iter :      0.081 s




    ----------------------------------------------------------------------------
                                  WARNING !!!
       The optimization did not converge but reached the maximum number of
       optimization cycles.
       Please check your results very carefully.
    ----------------------------------------------------------------------------



--------------------------------
SUGGESTED CITATIONS FOR THIS RUN
--------------------------------

Below you find a list of papers that are relevant to this ORCA run
We neither can nor want to force you to cite these papers, but we appreciate if you do
You receive ORCA, which is the product of decades of hard work by many enthusiastic individuals, for free
The only thing we kindly ask in return is that you cite our papers,
We deeply appreciate it, if you show your appreciation for ORCA by not just citing the generic ORCA reference.

Please note that relegating all ORCA citations to the supporting information does *not* help us.
SI sections are not indexed - citations you put there will not count into any citation statistics
But we need these citations in order to attract the funding resources that allow us to do what we are doing

Therefore, if you are a happy ORCA user, please consider citing a few of the papers listed below in the main body of your paper

In addition to the list printed below, the program has created the file random_d1.70_001_m3.bibtex that contains the list in bibtex format
You can import this file easily into all common literature databanks and citation aid programs

It goes without saying that in many instances, there are alternative algorithms to achieve similar
results as the ones you have gotten from ORCA. It is, of course, also the case that in some instances
ORCA just re-implements algorithms worked out by others. We are fully aware of that and we are also
fully appreciative of our colleagues work. Hence this citation list should not be read as indicating
that the listed papers, which are focused on our own work, are the only ones worth citing. It simply
meant to make it easier for users to cite ORCA specific papers. It is not a substitute for doing your
own literature research and citing the relevant literature in a scientifically appropriate manner.

List of essential papers. We consider these as the minimum necessary citations

  1. Bannwarth, C.; Ehlert, S.; Grimme, S.
     GFN2-xTB—An Accurate and Broadly Parametrized Self-Consistent Tight-Binding Quantum Chemical Method with Multipole Electrostatics and Density-Dependent Dispersion Contributions
     J. Chem. Theory Comput. 2019 15(3), 1652-1671
     doi.org/10.1021/acs.jctc.8b01176
  2. Neese, F.
     Software update: the ORCA program system, version 6.0
     WIRES Comput. Molec. Sci. 2025 15(1), e70019
     doi.org/10.1002/wcms.70019

List of papers to cite with high priority. The work reported in these papers was absolutely
necessary for this run to complete.
Our perspective: the developers of density functionals and basis sets usually get cited in chemistry papers
Good! But without the algorithms to do something with them, the functionals or basis sets would not do anything.
Hence, in our opinion, the algorithm design and method developments papers are equally worthy of getting cited

  1. Bannwarth, C.; Caldeweyher, E.; Ehlert, S.; Hansen, A.; Pracht, P.; Seibert, J.; Spicher, S.; Grimme, S.
     Extended tight-binding quantum chemistry methods
     WIRES Comput. Molec. Sci. 2020 11(2), e1493
     doi.org/10.1002/wcms.1493

List of suggested additional citations. These are papers that are important in the 'surrounding' of 
of this run, or papers that preceded the highly important papers. If you like your results we are grateful for a citation.

  1. Neese, F.
     The ORCA program system
     WIRES Comput. Molec. Sci. 2012 2(1), 73-78
     doi.org/10.1002/wcms.81
  2. Neese, F.
     Software update: the ORCA program system, version 4.0
     WIRES Comput. Molec. Sci. 2018 8(1), 1-6
     doi.org/10.1002/wcms.1327
  3. Neese, F.; Wennmohs, F.; Becker, U.; Riplinger, C.
     The ORCA quantum chemistry program package
     J. Chem. Phys. 2020 152(22), 224108
     doi.org/10.1063/5.0004608
  4. Neese, F.
     Software update: The ORCA program system—Version 5.0
     WIRES Comput. Molec. Sci. 2022 12(1), e1606
     doi.org/10.1002/wcms.1606

List of optional additional citations

  1. Neese, F.
     Approximate second-order SCF convergence for spin unrestricted wavefunctions
     Chem. Phys. Lett. 2000 325(1-3), 93-98
     doi.org/10.1016/s0009-2614(00)00662-x

Timings for individual modules:

Sum of individual times          ...        3.609 sec (=   0.060 min)
Geometry relaxation              ...        0.849 sec (=   0.014 min)  23.5 %
XTB module                       ...        2.760 sec (=   0.046 min)  76.5 %
                             ****ORCA TERMINATED NORMALLY****
TOTAL RUN TIME: 0 days 0 hours 0 minutes 4 seconds 164 msec
