
                                 *****************
                                 * O   R   C   A *
                                 *****************

                                            #,                                       
                                            ###                                      
                                            ####                                     
                                            #####                                    
                                            ######                                   
                                           ########,                                 
                                     ,,################,,,,,                         
                               ,,#################################,,                 
                          ,,##########################################,,             
                       ,#########################################, ''#####,          
                    ,#############################################,,   '####,        
                  ,##################################################,,,,####,       
                ,###########''''           ''''###############################       
              ,#####''   ,,,,##########,,,,          '''####'''          '####       
            ,##' ,,,,###########################,,,                        '##       
           ' ,,###''''                  '''############,,,                           
         ,,##''                                '''############,,,,        ,,,,,,###''
      ,#''                                            '''#######################'''  
     '                                                          ''''####''''         
             ,#######,   #######,   ,#######,      ##                                
            ,#'     '#,  ##    ##  ,#'     '#,    #''#        ,####,    ,#,          
            ##       ##  ##   ,#'  ##            #'  '#       #'       ,# #          
            ##       ##  #######   ##           ,######,      #####,      #          
            '#,     ,#'  ##    ##  '#,     ,#' ,#      #,     #,   #      #          
             '#######'   ##     ##  '#######'  #'      '#     '####' #    #          



                #########################################################
                #                        -***-                          #
                #          Department of theory and spectroscopy        #
                #                                                       #
                #                      Frank Neese                      #
                #                                                       #
                #     Directorship, Architecture, Infrastructure        #
                #                    SHARK, DRIVERS                     #
                #        Core code/Algorithms in most modules           #
                #                                                       #
                #        Max Planck Institute fuer Kohlenforschung      #
                #                Kaiser Wilhelm Platz 1                 #
                #                 D-45470 Muelheim/Ruhr                 #
                #                      Germany                          #
                #                                                       #
                #                  All rights reserved                  #
                #                        -***-                          #
                #########################################################


                         Program Version 6.1.1  -  RELEASE   -
                                (GIT: $487d211c$)
                          ($2025-11-21 10:33:24 +0100$)
                                                                         
                                  - NO-DMRG VERSION -                    
                                                                         


 With contributions from (in alphabetic order):
[Max-Planck-Institut fuer Kohlenforschung]                               
  Daniel Aravena         : Magnetic Suceptibility                        
  Michael Atanasov       : Ab Initio Ligand Field Theory (pilot matlab implementation)
  Alexander A. Auer      : GIAO ZORA, VPT2 properties, NMR spectrum      
  Ute Becker             : All parallelization in ORCA, NUMFREQ, NUMCALC 
  Giovanni Bistoni       : ED, misc. LED, open-shell LED, HFLD           
  Dmytro Bykov           : pre 5.0 version of the SCF Hessian            
  Marcos Casanova-Páez   : Triplet and SCS-CIS(D). UHF-(DLPNO)-IP/EA/STEOM-CCSD. UHF-CVS-IP/STEOM-CCSD   
  Vijay G. Chilkuri      : MRCI spin determinant printing, contributions to CSF-ICE 
  Pauline Colinet        : FMM embedding                                 
  Dipayan Datta          : RHF DLPNO-CCSD density                        
  Achintya Kumar Dutta   : EOM-CC, STEOM-CC                              
  Nicolas Foglia         : Exact transition moments, OPA infrastructure, MCD improvements    
  Dmitry Ganyushin       : Spin-Orbit,Spin-Spin,Magnetic field MRCI      
  Miquel Garcia-Rates    : C-PCM and meta-GGA Hessian, CCSD/C-PCM, Gaussian charge scheme 
  Tiago L. C. Gouveia    : GS-ROHF, GS-ROCIS                             
  Yang Guo               : DLPNO-NEVPT2, F12-NEVPT2, CIM, IAO-localization        
  Andreas Hansen         : Spin unrestricted coupled pair/coupled cluster methods 
  Ingolf Harden          : AUTO-CI MPn and infrastructure                
  Benjamin Helmich-Paris : MC-RPA, TRAH-(SCF,CASSCF), AVAS, COSX integrals, SCF dyn. polar., MC-PDFT, srDFT 
  Lee Huntington         : MR-EOM, pCC                                   
  Robert Izsak           : Overlap fitted RIJCOSX, COSX-SCS-MP3, EOM     
  Riya Kayal             : Wick's Theorem for AUTO-CI, AUTO-CI UHF-CCSDT 
  Emily Kempfer          : AUTO-CI RHF CISDT and CCSDT, approximate NEVPT4
  Christian Kollmar      : KDIIS, OOCD, Brueckner-CCSD(T), CCSD density, CASPT2, CASPT2-K, improved NEVPT2 
  Axel Koslowski         : Symmetry handling                             
  Simone Kossmann        : meta-GGA functionals, TD-DFT gradient, OOMP2, (MP2 Hessian; deprecated post 5.0) 
  Lucas Lang             : DCDCAS, Hyperfine gauge corrections, ICE-SOC+SSC
  Marvin Lechner         : AUTO-CI (C++ implementation), FIC-MRCC        
  Spencer Leger          : CASSCF response                               
  Dagmar Lenk            : GEPOL surface, SMD, ORCA-2-JSON               
  Dimitrios Liakos       : Extrapolation schemes; Compound Job, Property file
  Dimitrios Manganas     : Further ROCIS development; embedding schemes. LFT, Crystal Embedding 
  Dimitrios Pantazis     : SARC Basis sets                               
  Anastasios Papadopoulos: AUTO-CI, single reference methods and gradients 
  Taras Petrenko         : pre 6.0 DFT Hessian and TD-DFT gradient,  ECA, NRVS 
  Petra Pikulova         : Analytic Raman intensities                    
  Peter Pinski           : DLPNO-MP2, DLPNO-MP2 Gradient                 
  Shashank Vittal Rao    : ES-AILFT, MagRelax                            
  Christoph Reimann      : Effective Core Potentials                     
  Marius Retegan         : Local ZFS, SOC                                
  Christoph Riplinger    : Optimizer, TS searches, QM/MM, DLPNO-CCSD(T), (RO)-DLPNO pert. Triples 
  Michael Roemelt        : Original ROCIS implementation, recursive CI coupling coefficients
  Masaaki Saitow         : Open-shell DLPNO-CCSD energy and density      
  Barbara Sandhoefer     : DKH picture change effects                    
  Yorick L. A. Schmerwitz: GMF and freeze-and-release deltaSCF, NEB S-IDPP initial path                    
  Kantharuban Sivalingam : CASSCF convergence/infrastructure, NEVPT2, NEVPT3, NEVPT4(SD), FIC-MRCI and CEPA variants
  Bernardo de Souza      : ESD, SOC TD-DFT                               
  Georgi L. Stoychev     : AutoAux, RI-MP2 NMR, DLPNO-MP2 response, X2C  
  Van Anh Tran           : RI-MP2 g-tensors                              
  Willem Van den Heuvel  : Paramagnetic NMR                              
  Zikuan Wang            : NOTCH, Electric field optimization            
  Frank Wennmohs         : Technical directorship and infrastructure     
  Hang Xu                : AUTO-CI-Response properties                   
                                                                         
[FACCTs GmbH]                                                            
  Markus Bursch, Nicolas Foglia, Miquel Garcia-Rates, Ingolf Harden, Hagen Neugebauer, Anastasios Papadopoulos, 
  Christoph Riplinger, Bernardo de Souza, Georgi L. Stoychev                                                    
                                                                 
  APM, various basis sets, CI-OPT, improved COSX, DLPNO-Multilevel,           
  DOCKER, DRACO, updates on ESD, Fragmentator, GOAT, IRC, LR-CPCM, L-BFGS, MBIS, meta-GGA TD-DFT gradient, ML-optimized integration grids, 
  MM, NACMEs, nearIR, NEB, NEB-TS, NL-DFT gradient (VV10), 2- and 3-layer-ONIOM, interface openCOSMO-RS, QMMM,   
  Crystal-QMMM, RESP, rigid body optimization, SF, symmetry and pop. for TD-DFT, various functionals, SOLVATOR                                   
                                                                         
[Other institutions]                                                     
  V. Asgeirsson          : NEB                                           
  Christoph Bannwarth    : sTDA-DFT, sTD-DFT, PBEh-3c, B97-3c, D3        
  Giovanni Bistoni       : ETS/NOCV, ADLD/ADEX, COVALED                  
  Martin Brehm           : Molecular dynamics                            
  Ronald Cardenas        : ETS/NOCV                                      
  Martina Colucci        : COVALED                                       
  Sebastian Ehlert       : rSCAN, r2SCAN, r2SCAN-3c, D4, dhf basis sets  
  Marvin Friede          : D4 for Fr, Ra, Ac-Lr                          
  Lars Goerigk           : TD-DFT with DH, B97 family of functionals     
  Stefan Grimme          : VdW corrections, initial TS optimization, DFT functionals, gCP, sTDA/sTD-DF 
  Waldemar Hujo          : DFT-NL                                        
  H. Jonsson             : NEB                                           
  Holger Kruse           : gCP                                           
  Marcel Mueller         : wB97X-3c, vDZP basis set                      
  Hagen Neugebauer       : wr2SCAN, Native XTB                           
  Gianluca Regni         : ADLD/ADEX                                     
  Tobias Risthaus        : pre 6.0 range-separated hybrid DFT and stability analysis
  Lukas Wittmann         : regularized MP2, r2SCAN double-hybrids, wr2SCAN        
                                                                         
We gratefully acknowledge several colleagues who have allowed us to      
interface, adapt or use parts of their codes:                            
  Ed Valeev, F. Pavosevic, A. Kumar             : LibInt (2-el integral package), F12 methods 
  Garnet Chan, S. Sharma, J. Yang, R. Olivares  : DMRG                   
  Ulf Ekstrom                                   : XCFun DFT Library      
  Mihaly Kallay                                 : mrcc  (arbitrary order and MRCC methods)
  Frank Weinhold                                : gennbo (NPA and NBO analysis)           
  Simon Mueller                                 : openCOSMO-RS                            
  Christopher J. Cramer and Donald G. Truhlar   : smd solvation model                     
  S Lehtola, MJT Oliveira, MAL Marques          : LibXC Library                           
  Liviu Ungur et al                             : ANISO software                          


 Your calculation uses the libint2 library for the computation of 2-el integrals
 For citations please refer to: http://libint.valeyev.net

 Your ORCA version has been built with support for libXC version: 7.0.0
 For citations please refer to: https://libxc.gitlab.io

 This ORCA versions uses:
   CBLAS   interface :  Fast vector & matrix operations
   LAPACKE interface :  Fast linear algebra routines
   SCALAPACK package :  Parallel linear algebra routines
   Shared memory     :  Shared parallel matrices
   BLAS/LAPACK       :  OpenBLAS 0.3.29  USE64BITINT DYNAMIC_ARCH NO_AFFINITY Zen SINGLE_THREADED
        Core in use  :  Zen
   Copyright (c) 2011-2014, The OpenBLAS Project


  ***********************************
  * Starting time: Fri Apr 17 12:14:31 2026
  * Host name:     vmi3233575
  * Process ID:    336125
  * Working dir.:  /root/orca_b12_vps_pack/jobs/01_xtb/mult_3
  ***********************************

NOTE: MaxCore=500 MB was set to SCF,MP2,MDCI,CIPSI,MRCI,RASCI and CIS
      => If you want to overwrite this, your respective input block should be placed after the MaxCore statement


***************************************
The coordinates will be read from file: ../../../starts/random_d1.50_003.xyz
***************************************


Your calculation utilizes the semiempirical GFN2-xTB method
Please cite in your paper:
Bannwarth, C.; Ehlert S.; Grimme, S. J. Chem. Theory Comput. 2019, 15, 1652.
   

================================================================================

================================================================================
                                        WARNINGS
                       Please study these warnings very carefully!
================================================================================


WARNING: Geometry Optimization
  ===> : Switching off AutoStart
         For restart on a previous wavefunction, please use MOREAD

WARNING: Found dipole moment calculation with XTB calculation
  ===> : Switching off dipole moment calculation

Environment variable XTBEXE for xtb has been set!

================================================================================
                                       INPUT FILE
================================================================================
NAME = random_d1.50_003_m3.inp
|  1> ! GFN2-xTB TightSCF TightOpt
|  2> 
|  3> %pal
|  4>   nprocs 1
|  5> end
|  6> 
|  7> %maxcore 500
|  8> 
|  9> * xyzfile 0 3 ../../../starts/random_d1.50_003.xyz
| 10> 
| 11>                          ****END OF INPUT****
================================================================================

                       *****************************
                       * Geometry Optimization Run *
                       *****************************

Geometry optimization settings:
Update method            Update   .... BFGS
Choice of coordinates    CoordSys .... (2022) Redundant Internals
Initial Hessian          InHess   .... Almloef's Model
Max. no of cycles        MaxIter  .... 50

Convergence Tolerances:
Energy Change            TolE     ....  1.0000e-06 Eh
Max. Gradient            TolMAXG  ....  1.0000e-04 Eh/bohr
RMS Gradient             TolRMSG  ....  3.0000e-05 Eh/bohr
Max. Displacement        TolMAXD  ....  1.0000e-03 bohr
RMS Displacement         TolRMSD  ....  6.0000e-04 bohr
Strict Convergence                .... False

------------------------------------------------------------------------------
                        ORCA OPTIMIZATION COORDINATE SETUP
------------------------------------------------------------------------------

The optimization will be done in redundant internal coordinates (2022)
Making redundant internal coordinates   ...  (2022 redundants) done
Evaluating the initial hessian          ...  (Almloef) done
Evaluating the coordinates              ...  done
Calculating the B-matrix                .... done
Calculating the G-matrix                .... done
The number of degrees of freedom        ....  100

    -----------------------------------------------------------------
                    Redundant Internal Coordinates


    -----------------------------------------------------------------
         Definition                    Initial Value    Approx d2E/dq
    -----------------------------------------------------------------
      1. B(B   2,B   1)                  1.5903         0.401635   
      2. B(B   3,B   1)                  1.1752         1.845453   
      3. B(B   3,B   2)                  1.7107         0.258099   
      4. B(B   5,B   0)                  2.0670         0.069705   
      5. B(B   8,B   5)                  1.4562         0.657262   
      6. B(B   9,B   4)                  1.4585         0.651767   
      7. B(B   9,B   2)                  1.9225         0.118537   
      8. B(B   9,B   8)                  1.7836         0.197397   
      9. B(B   9,B   7)                  1.7693         0.208046   
     10. B(B   9,B   5)                  2.0150         0.084378   
     11. B(B  10,B   6)                  1.9580         0.104014   
     12. B(B  10,B   2)                  1.7742         0.204401   
     13. B(B  10,B   1)                  1.7717         0.206255   
     14. B(B  11,B   7)                  1.7698         0.207716   
     15. B(B  11,B   6)                  1.8015         0.184852   
     16. B(B  11,B  10)                  1.4130         0.770299   
     17. A(B   2,B   1,B  10)           63.4322         0.343398   
     18. A(B   2,B   1,B   3)           74.7410         0.506751   
     19. A(B   3,B   1,B  10)          130.3041         0.448261   
     20. A(B   9,B   2,B  10)          128.1710         0.281607   
     21. A(B   3,B   2,B  10)          100.8206         0.318699   
     22. A(B   1,B   2,B   3)           41.5106         0.356642   
     23. A(B   1,B   2,B  10)           63.2739         0.342878   
     24. A(B   3,B   2,B   9)          130.9079         0.292049   
     25. A(B   1,B   2,B   9)          163.0583         0.313423   
     26. A(B   1,B   3,B   2)           63.7485         0.466964   
     27. A(B   0,B   5,B   8)           88.5856         0.311480   
     28. A(B   8,B   5,B   9)           59.2631         0.321311   
     29. A(B   0,B   5,B   9)           79.0351         0.228800   
     30. A(B  10,B   6,B  11)           43.9072         0.271786   
     31. A(B   9,B   7,B  11)          120.1392         0.308557   
     32. A(B   5,B   8,B   9)           76.1704         0.370587   
     33. A(B   2,B   9,B   4)           94.9423         0.339413   
     34. A(B   5,B   9,B   7)          163.1694         0.268059   
     35. A(B   4,B   9,B   7)          111.1447         0.373415   
     36. A(B   2,B   9,B   7)           74.5328         0.282379   
     37. A(B   4,B   9,B   5)           82.3305         0.320870   
     38. A(B   2,B   9,B   5)           94.8541         0.246652   
     39. A(B   7,B   9,B   8)          118.7894         0.306040   
     40. A(B   5,B   9,B   8)           44.5665         0.265942   
     41. A(B   4,B   9,B   8)          121.9687         0.370053   
     42. A(B   2,B   9,B   8)           72.8992         0.280093   
     43. A(B   1,B  10,B  11)          128.8511         0.383800   
     44. A(B   2,B  10,B   6)           75.4350         0.275993   
     45. A(B   1,B  10,B   6)           78.0108         0.276375   
     46. A(B   1,B  10,B   2)           53.2939         0.307332   
     47. A(B   6,B  10,B  11)           62.1492         0.341484   
     48. A(B   2,B  10,B  11)           85.0232         0.383198   
     49. A(B   6,B  11,B   7)          115.1006         0.302761   
     50. A(B   7,B  11,B  10)          114.5938         0.384271   
     51. A(B   6,B  11,B  10)           73.9436         0.376580   
     52. D(B   9,B   2,B   1,B   3)    -71.4341         0.010000   
     53. D(B   9,B   2,B   1,B  10)    136.1842         0.010000   
     54. D(B  10,B   2,B   1,B   3)    152.3817         0.010000   
     55. D(B   3,B   2,B   1,B  10)   -152.3817         0.010000   
     56. D(B   1,B   3,B   2,B   9)    158.5615         0.010000   
     57. D(B   1,B   3,B   2,B  10)    -24.9324         0.010000   
     58. D(B   2,B   3,B   1,B  10)     32.9349         0.181510   
     59. D(B   9,B   8,B   5,B   0)     78.0721         0.018307   
     60. D(B   4,B   9,B   2,B   3)   -103.5068         0.010000   
     61. D(B   8,B   9,B   7,B  11)     61.9305         0.010000   
     62. D(B   5,B   9,B   2,B   1)     35.4240         0.010000   
     63. D(B   5,B   9,B   2,B   3)    -20.8085         0.010000   
     64. D(B   7,B   9,B   8,B   5)   -176.8366         0.010000   
     65. D(B   7,B   9,B   2,B   1)   -157.8685         0.010000   
     66. D(B   5,B   9,B   7,B  11)     54.2446         0.010000   
     67. D(B   2,B   9,B   7,B  11)      1.9431         0.010000   
     68. D(B   7,B   9,B   5,B   8)      9.6153         0.010000   
     69. D(B   7,B   9,B   5,B   0)    -85.3157         0.010000   
     70. D(B   4,B   9,B   5,B   8)    153.8991         0.010000   
     71. D(B   4,B   9,B   5,B   0)     58.9681         0.010000   
     72. D(B   4,B   9,B   2,B  10)     80.8598         0.010000   
     73. D(B   4,B   9,B   7,B  11)    -87.4164         0.010000   
     74. D(B   4,B   9,B   2,B   1)    -47.2742         0.010000   
     75. D(B   2,B   9,B   5,B   8)     59.5515         0.010000   
     76. D(B   2,B   9,B   8,B   5)   -116.0088         0.010000   
     77. D(B   4,B   9,B   8,B   5)    -30.9285         0.010000   
     78. D(B   2,B   9,B   5,B   0)    -35.3795         0.010000   
     79. D(B   5,B   9,B   2,B  10)    163.5581         0.010000   
     80. D(B   6,B  10,B   1,B   3)     44.7517         0.010000   
     81. D(B   6,B  10,B   1,B   2)     80.6568         0.010000   
     82. D(B   2,B  10,B   1,B   3)    -35.9051         0.010000   
     83. D(B   2,B  10,B   6,B  11)    -92.0580         0.010000   
     84. D(B   1,B  10,B   6,B  11)   -146.8777         0.010000   
     85. D(B   6,B  10,B   2,B   9)    109.1131         0.010000   
     86. D(B   6,B  10,B   2,B   3)    -67.5283         0.010000   
     87. D(B   6,B  10,B   2,B   1)    -85.7565         0.010000   
     88. D(B   1,B  10,B   2,B   9)   -165.1304         0.010000   
     89. D(B  11,B  10,B   2,B   1)   -148.2478         0.010000   
     90. D(B   1,B  10,B   2,B   3)     18.2282         0.010000   
     91. D(B  11,B  10,B   1,B   3)      6.4083         0.010000   
     92. D(B  11,B  10,B   1,B   2)     42.3134         0.010000   
     93. D(B   7,B  11,B  10,B   6)   -110.7161         0.030483   
     94. D(B   7,B  11,B  10,B   2)    -34.5725         0.030483   
     95. D(B   7,B  11,B  10,B   1)    -67.3748         0.030483   
     96. D(B   6,B  11,B  10,B   2)     76.1436         0.030483   
     97. D(B   6,B  11,B  10,B   1)     43.3412         0.030483   
     98. D(B  10,B  11,B   7,B   9)     28.0251         0.010000   
     99. D(B   6,B  11,B   7,B   9)    -54.9969         0.010000   
    100. D(B   7,B  11,B   6,B  10)    110.0851         0.010000   
    -----------------------------------------------------------------

Number of atoms                         .... 12
Number of degrees of freedom            .... 100


         *************************************************************
         *                GEOMETRY OPTIMIZATION CYCLE   1            *
         *************************************************************
---------------------------------
CARTESIAN COORDINATES (ANGSTROEM)
---------------------------------
  B     0.625294   -0.353633    1.973674
  B    -1.645316    0.171820    0.961882
  B    -0.314936    0.107052    0.093032
  B    -1.344008   -0.963901    0.941805
  B     2.047828    0.790298    0.599734
  B     1.952976   -1.513421    0.894487
  B    -2.094413   -0.066505   -1.334444
  B     0.743012    0.870510   -1.726324
  B     0.910639   -1.715172   -0.102198
  B     1.520498   -0.075302   -0.449014
  B    -1.436646    1.434664   -0.263101
  B    -0.964930    1.313589   -1.589535

----------------------------
CARTESIAN COORDINATES (A.U.)
----------------------------
  NO LB    ZA    FRAG    MASS        X           Y           Z
   0 B   5.0000    0    10.810    1.181635   -0.668269    3.729704
   1 B   5.0000    0    10.810   -3.109196    0.324693    1.817694
   2 B   5.0000    0    10.810   -0.595142    0.202299    0.175806
   3 B   5.0000    0    10.810   -2.539807   -1.821508    1.779754
   4 B   5.0000    0    10.810    3.869835    1.493446    1.133333
   5 B   5.0000    0    10.810    3.690589   -2.859951    1.690335
   6 B   5.0000    0    10.810   -3.957867   -0.125677   -2.521734
   7 B   5.0000    0    10.810    1.404090    1.645025   -3.262280
   8 B   5.0000    0    10.810    1.720857   -3.241205   -0.193125
   9 B   5.0000    0    10.810    2.873325   -0.142299   -0.848513
  10 B   5.0000    0    10.810   -2.714867    2.711122   -0.497188
  11 B   5.0000    0    10.810   -1.823453    2.482324   -3.003785

      -----------------------------------------------------------      
     |                   =====================                   |     
     |                           x T B                           |     
     |                   =====================                   |     
     |                         S. Grimme                         |     
     |          Mulliken Center for Theoretical Chemistry        |     
     |                    University of Bonn                     |     
      -----------------------------------------------------------      

   * xtb version 6.6.1 (unknown) compiled by 'builduser@buildhost' on 2023-08-07

   xtb is free software: you can redistribute it and/or modify it under
   the terms of the GNU Lesser General Public License as published by
   the Free Software Foundation, either version 3 of the License, or
   (at your option) any later version.
   
   xtb is distributed in the hope that it will be useful,
   but WITHOUT ANY WARRANTY; without even the implied warranty of
   MERCHANTABILITY or FITNESS FOR A PARTICULAR PURPOSE.  See the
   GNU Lesser General Public License for more details.
   
   Cite this work as:
   * C. Bannwarth, E. Caldeweyher, S. Ehlert, A. Hansen, P. Pracht,
     J. Seibert, S. Spicher, S. Grimme, WIREs Comput. Mol. Sci., 2020, 11,
     e01493. DOI: 10.1002/wcms.1493
   
   for GFN2-xTB:
   * C. Bannwarth, S. Ehlert and S. Grimme., J. Chem. Theory Comput., 2019,
     15, 1652-1671. DOI: 10.1021/acs.jctc.8b01176
   for GFN1-xTB:
   * S. Grimme, C. Bannwarth, P. Shushkov, J. Chem. Theory Comput., 2017,
     13, 1989-2009. DOI: 10.1021/acs.jctc.7b00118
   for GFN0-xTB:
   * P. Pracht, E. Caldeweyher, S. Ehlert, S. Grimme, ChemRxiv, 2019, preprint.
     DOI: 10.26434/chemrxiv.8326202.v1
   for GFN-FF:
   * S. Spicher and S. Grimme, Angew. Chem. Int. Ed., 2020, 59, 15665-15673.
     DOI: 10.1002/anie.202004239
   
   for ALPB and GBSA implicit solvation:
   * S. Ehlert, M. Stahn, S. Spicher, S. Grimme, J. Chem. Theory Comput.,
     2021, 17, 4250-4261. DOI: 10.1021/acs.jctc.1c00471
   
   for DFT-D4:
   * E. Caldeweyher, C. Bannwarth and S. Grimme, J. Chem. Phys., 2017,
     147, 034112. DOI: 10.1063/1.4993215
   * E. Caldeweyher, S. Ehlert, A. Hansen, H. Neugebauer, S. Spicher,
     C. Bannwarth and S. Grimme, J. Chem. Phys., 2019, 150, 154122.
     DOI: 10.1063/1.5090222
   * E. Caldeweyher, J.-M. Mewes, S. Ehlert and S. Grimme, Phys. Chem. Chem. Phys.
     2020, 22, 8499-8512. DOI: 10.1039/D0CP00502A
   
   for sTDA-xTB:
   * S. Grimme and C. Bannwarth, J. Chem. Phys., 2016, 145, 054103.
     DOI: 10.1063/1.4959605
   
   in the mass-spec context:
   * V. Asgeirsson, C. Bauer and S. Grimme, Chem. Sci., 2017, 8, 4879.
     DOI: 10.1039/c7sc00601b
   * J. Koopman and S. Grimme, ACS Omega 2019, 4, 12, 15120-15133.
     DOI: 10.1021/acsomega.9b02011
   
   for metadynamics refer to:
   * S. Grimme, J. Chem. Theory Comput., 2019, 155, 2847-2862
     DOI: 10.1021/acs.jctc.9b00143
   
   for SPH calculations refer to:
   * S. Spicher and S. Grimme, J. Chem. Theory Comput., 2021, 17, 1701-1714
     DOI: 10.1021/acs.jctc.0c01306
   
   with help from (in alphabetical order)
   P. Atkinson, C. Bannwarth, F. Bohle, G. Brandenburg, E. Caldeweyher
   M. Checinski, S. Dohm, S. Ehlert, S. Ehrlich, I. Gerasimov, C. Hölzer
   A. Katbashev, J. Koopman, C. Lavigne, S. Lehtola, F. März, M. Müller,
   F. Musil, H. Neugebauer, J. Pisarek, C. Plett, P. Pracht, F. Pultar,
   J. Seibert, P. Shushkov, S. Spicher, M. Stahn, M. Steiner, T. Strunk,
   J. Stückrath, T. Rose, and J. Unsleber
   
 * started run on 2026/04/17 at 12:14:31.353     

           -------------------------------------------------
          |                Calculation Setup                |
           -------------------------------------------------

          program call               : /usr/bin/xtb random_d1.50_003_m3_XTB.xyz --grad -c 0 -u 2 -P 1 --namespace random_d1.50_003_m3 --input random_d1.50_003_m3_XTB.input.tmp --acc 0.200000
          calculation namespace      : random_d1.50_003_m3
          coordinate file            : random_d1.50_003_m3_XTB.xyz
          omp threads                :                     1

   ID    Z sym.   atoms
    1    5 B      1-12

           -------------------------------------------------
          |                 G F N 2 - x T B                 |
           -------------------------------------------------

        Reference                      10.1021/acs.jctc.8b01176
      * Hamiltonian:
        H0-scaling (s, p, d)           1.850000    2.230000    2.230000
        zeta-weighting                 0.500000
      * Dispersion:
        s8                             2.700000
        a1                             0.520000
        a2                             5.000000
        s9                             5.000000
      * Repulsion:
        kExp                           1.500000    1.000000
        rExp                           1.000000
      * Coulomb:
        alpha                          2.000000
        third order                    shell-resolved
        anisotropic                    true
        a3                             3.000000
        a5                             4.000000
        cn-shift                       1.200000
        cn-exp                         4.000000
        max-rad                        5.000000


          ...................................................
          :                      SETUP                      :
          :.................................................:
          :  # basis functions                  48          :
          :  # atomic orbitals                  48          :
          :  # shells                           24          :
          :  # electrons                        36          :
          :  max. iterations                   250          :
          :  Hamiltonian                  GFN2-xTB          :
          :  restarted?                      false          :
          :  GBSA solvation                  false          :
          :  PC potential                    false          :
          :  electronic temp.          300.0000000     K    :
          :  accuracy                    0.2000000          :
          :  -> integral cutoff          0.3198970E+02      :
          :  -> integral neglect         0.2000000E-08      :
          :  -> SCF convergence          0.2000000E-06 Eh   :
          :  -> wf. convergence          0.2000000E-04 e    :
          :  Broyden damping             0.4000000          :
          ...................................................

 iter      E             dE          RMSdq      gap      omega  full diag
   1    -13.6585862 -0.136586E+02  0.189E+01    0.25       0.0  T
   2     -8.8982999  0.476029E+01  0.173E+01    0.22       1.0  T
   3      7.7981808  0.166965E+02  0.240E+01    0.52       1.0  T
   4     -1.2346832 -0.903286E+01  0.193E+01    0.28       1.0  T
   5    -11.8290685 -0.105944E+02  0.980E+00    0.27       1.0  T
   6    -11.3753608  0.453708E+00  0.108E+01    0.40       1.0  T
   7    -13.6855987 -0.231024E+01  0.589E+00    0.20       1.0  T
   8    -13.6055210  0.800776E-01  0.591E+00    0.18       1.0  T
   9    -13.8463075 -0.240786E+00  0.503E+00    0.22       1.0  T
  10    -13.8771382 -0.308308E-01  0.473E+00    0.18       1.0  T
  11    -13.8475358  0.296024E-01  0.471E+00    0.22       1.0  T
  12    -13.8084557  0.390801E-01  0.456E+00    0.32       1.0  T
  13    -13.8940427 -0.855870E-01  0.368E+00    0.27       1.0  T
  14    -13.9107181 -0.166754E-01  0.289E+00    0.20       1.0  T
  15    -13.9319763 -0.212582E-01  0.227E+00    0.26       1.0  T
  16    -13.9363494 -0.437310E-02  0.205E+00    0.24       1.0  T
  17    -13.9548763 -0.185270E-01  0.158E+00    0.20       1.0  T
  18    -13.9689940 -0.141177E-01  0.915E-01    0.15       1.0  T
  19    -13.9697083 -0.714322E-03  0.842E-01    0.15       1.0  T
  20    -13.9704411 -0.732783E-03  0.774E-01    0.13       1.0  T
  21    -13.9745788 -0.413778E-02  0.362E-01    0.13       1.0  T
  22    -13.9751548 -0.575951E-03  0.283E-01    0.13       1.0  T
  23    -13.9759009 -0.746094E-03  0.150E-01    0.14       1.0  T
  24    -13.9760021 -0.101236E-03  0.118E-01    0.14       1.0  T
  25    -13.9760940 -0.918660E-04  0.659E-02    0.14       1.0  T
  26    -13.9761033 -0.933190E-05  0.519E-02    0.14       1.0  T
  27    -13.9761189 -0.156041E-04  0.246E-02    0.14       1.2  T
  28    -13.9761187  0.245050E-06  0.275E-02    0.14       1.0  T
  29    -13.9761226 -0.390251E-05  0.171E-02    0.14       1.7  T
  30    -13.9761246 -0.197985E-05  0.463E-03    0.14       6.2  T
  31    -13.9761247 -0.136709E-06  0.166E-03    0.14      17.4  T
  32    -13.9761247 -0.160927E-07  0.913E-04    0.14      31.6  T
  33    -13.9761247 -0.423798E-08  0.179E-04    0.14     161.0  T
  34    -13.9761247 -0.718252E-10  0.892E-05    0.14     323.8  T

   *** convergence criteria satisfied after 34 iterations ***

         #    Occupation            Energy/Eh            Energy/eV
      -------------------------------------------------------------
         1        2.0000           -0.4408758             -11.9968
       ...           ...                  ...                  ...
        13        2.0000           -0.2789893              -7.5917
        14        2.0000           -0.2704381              -7.3590
        15        2.0000           -0.2545400              -6.9264
        16        2.0000           -0.2381389              -6.4801
        17        1.9957           -0.2274780              -6.1900
        18        1.0043           -0.2171525              -5.9090
        19        0.9359           -0.2091817              -5.6921 (HOMO)
        20        0.0641           -0.2040864              -5.5535 (LUMO)
        21        0.0000           -0.1964251              -5.3450
        22                         -0.1855418              -5.0488
        23                         -0.1742934              -4.7428
        24                         -0.1694558              -4.6111
       ...                                ...                  ...
        48                          3.7882916             103.0847
      -------------------------------------------------------------
                  HL-Gap            0.0050953 Eh            0.1386 eV
             Fermi-level           -0.2144747 Eh           -5.8362 eV

 transition dipole moment (au) for excitation:          18          19
     X       Y       Z   
  -0.2863   0.5603   0.2638  total (au/Debye):    0.682   1.734
 dE (eV)             :    0.217
 oscillator strength :  0.34983E-02

 SCC (total)                   0 d,  0 h,  0 min,  0.051 sec
 SCC setup                      ...        0 min,  0.000 sec (  0.325%)
 Dispersion                     ...        0 min,  0.000 sec (  0.193%)
 classical contributions        ...        0 min,  0.000 sec (  0.069%)
 integral evaluation            ...        0 min,  0.003 sec (  6.186%)
 iterations                     ...        0 min,  0.037 sec ( 72.722%)
 molecular gradient             ...        0 min,  0.006 sec ( 11.629%)
 printout                       ...        0 min,  0.005 sec (  8.822%)

         :::::::::::::::::::::::::::::::::::::::::::::::::::::
         ::                     SUMMARY                     ::
         :::::::::::::::::::::::::::::::::::::::::::::::::::::
         :: total energy             -13.568572933421 Eh    ::
         :: gradient norm              1.160886933619 Eh/a0 ::
         :: HOMO-LUMO gap              0.138649442380 eV    ::
         ::.................................................::
         :: SCC energy               -13.976124719537 Eh    ::
         :: -> isotropic ES            0.067774321812 Eh    ::
         :: -> anisotropic ES         -0.000219618939 Eh    ::
         :: -> anisotropic XC         -0.023915055534 Eh    ::
         :: -> dispersion             -0.016375398866 Eh    ::
         :: repulsion energy           0.407536285345 Eh    ::
         :: add. restraining           0.000000000000 Eh    ::
         :: total charge               0.000000000000 e     ::
         :::::::::::::::::::::::::::::::::::::::::::::::::::::


Property printout bound to 'properties.out'

           -------------------------------------------------
          | TOTAL ENERGY              -13.568572933421 Eh   |
          | GRADIENT NORM               1.160886933619 Eh/α |
          | HOMO-LUMO GAP               0.138649442380 eV   |
           -------------------------------------------------

------------------------------------------------------------------------
 * finished run on 2026/04/17 at 12:14:31.423     
------------------------------------------------------------------------
 total:
 * wall-time:     0 d,  0 h,  0 min,  0.070 sec
 *  cpu-time:     0 d,  0 h,  0 min,  0.065 sec
 * ratio c/w:     0.927 speedup
 SCF:
 * wall-time:     0 d,  0 h,  0 min,  0.052 sec
 *  cpu-time:     0 d,  0 h,  0 min,  0.051 sec
 * ratio c/w:     1.000 speedup


-------------------------   --------------------
FINAL SINGLE POINT ENERGY       -13.568572933420
-------------------------   --------------------


-------------
DIPOLE MOMENT
-------------
                                X             Y             Z
Total Dipole Moment    :      0.37500       0.29600       0.07200
                        -----------------------------------------
Magnitude (a.u.)       :      0.48314
Magnitude (Debye)      :      1.22805


------------------
CARTESIAN GRADIENT
------------------

   1   B   :   -0.042496442    0.004495697    0.059157947
   2   B   :    0.235660378   -0.782187807    0.005748525
   3   B   :   -0.058282899    0.006919449    0.030498575
   4   B   :   -0.226932762    0.744635411    0.009690644
   5   B   :    0.013051016   -0.000335789   -0.088689227
   6   B   :    0.006294990   -0.026599093   -0.041068231
   7   B   :   -0.027005942   -0.023712645   -0.013551699
   8   B   :    0.043490093    0.024911817   -0.036287957
   9   B   :    0.034818528   -0.019230601    0.012346764
  10   B   :    0.049104059    0.004382339    0.093635958
  11   B   :    0.053236761    0.025412887   -0.124270101
  12   B   :   -0.080937782    0.041308336    0.092788802

Difference to translation invariance:
           :    0.0000000000    0.0000000000    0.0000000000

Difference to rotation invariance:
           :    0.0000000377    0.0000000466   -0.0000000049

Norm of the Cartesian gradient     ...    1.1608869336
RMS gradient                       ...    0.1934811556
MAX gradient                       ...    0.7821878067
------------------------------------------------------------------------------
                         ORCA GEOMETRY RELAXATION STEP
------------------------------------------------------------------------------

Reading the OPT-File                    .... done
Getting information on internals        .... done
Copying old internal coords+grads       .... done
Making the new internal coordinates     .... (2022 redundants) done
Validating the new internal coordinates .... (2022 redundants) done
Calculating the B-matrix                .... done
Calculating the G,G- and P matrices     .... done
Transforming gradient to internals      .... done
Projecting the internal gradient        .... done
Number of atoms                         ....  12
Number of internal coordinates          .... 100
Current Energy                          ....   -13.568572933 Eh
Current gradient norm                   ....     1.160886934 Eh/bohr
Maximum allowed component of the step   ....  0.300
Current trust radius                    ....  0.300
Evaluating the initial hessian          ....  (Almloef) done
Projecting the Hessian                  .... done
Forming the augmented Hessian           .... done
Diagonalizing the augmented Hessian     .... done
Last element of RFO vector              ....  0.871216074
Lowest eigenvalues of augmented Hessian:
 -0.341170878  0.012932414  0.013257353  0.014726280  0.032392103
Length of the computed step             ....  0.563464969
Warning: the length of the step is outside the trust region - taking restricted step instead
The input lambda is                     ....     0.011911
   iter:   5  x=   -0.014194  g=  335.589906 f(x)=     5.455575
   iter:  10  x=   -0.771593  g=    0.479642 f(x)=     0.145282
   iter:  15  x=   -1.192735  g=    0.085743 f(x)=     0.000000
The output lambda is                    ....    -1.192735 (16 iterations)
The final length of the internal step   ....  0.300000000
Converting the step to Cartesian space:
 Initial RMS(Int)=    0.0300000000
Transforming coordinates:
 Iter   0:  RMS(Cart)=    0.0633222626 RMS(Int)=    0.0298783476
 Iter   5:  RMS(Cart)=    0.0000000294 RMS(Int)=    0.0000000214
done
Storing new coordinates                 .... done

                                .--------------------.
          ----------------------|Geometry convergence|-------------------------
          Item                value                   Tolerance       Converged
          ---------------------------------------------------------------------
          RMS gradient        0.0695179860            0.0000300000      NO
          MAX gradient        0.5495455113            0.0001000000      NO
          RMS step            0.0300000000            0.0006000000      NO
          MAX step            0.2145563702            0.0010000000      NO
          -------------------------------------------------------------------------
          ........................................................
          Max(Bonds)      0.1135      Max(Angles)    3.75
          Max(Dihed)        2.95      Max(Improp)    0.00
          ---------------------------------------------------------------------

The optimization has not yet converged - more geometry cycles are needed


    ---------------------------------------------------------------------------
                         Redundant Internal Coordinates
                            (Angstroem and degrees)

        Definition                    Value    dE/dq     Step     New-Value
    ----------------------------------------------------------------------------
     1. B(B   2,B   1)                1.5903 -0.039290  0.0098    1.6000   
     2. B(B   3,B   1)                1.1752 -0.549546  0.1135    1.2887   
     3. B(B   3,B   2)                1.7107 -0.124393  0.0239    1.7345   
     4. B(B   5,B   0)                2.0670  0.060705 -0.0254    2.0416   
     5. B(B   8,B   5)                1.4562 -0.019961  0.0062    1.4624   
     6. B(B   9,B   4)                1.4585 -0.059254  0.0170    1.4755   
     7. B(B   9,B   2)                1.9225  0.062427 -0.0235    1.8990   
     8. B(B   9,B   8)                1.7836  0.015060 -0.0061    1.7775   
     9. B(B   9,B   7)                1.7693  0.031649 -0.0145    1.7548   
    10. B(B   9,B   5)                2.0150  0.028398 -0.0119    2.0031   
    11. B(B  10,B   6)                1.9580  0.005707 -0.0044    1.9537   
    12. B(B  10,B   2)                1.7742 -0.008586 -0.0004    1.7737   
    13. B(B  10,B   1)                1.7717  0.065923 -0.0193    1.7523   
    14. B(B  11,B   7)                1.7698  0.037338 -0.0162    1.7536   
    15. B(B  11,B   6)                1.8015  0.023229 -0.0075    1.7940   
    16. B(B  11,B  10)                1.4130 -0.087862  0.0245    1.4375   
    17. A(B   2,B   1,B  10)           63.43 -0.011296    0.27     63.70   
    18. A(B   2,B   1,B   3)           74.74  0.074357   -1.83     72.91   
    19. A(B   3,B   1,B  10)          130.30  0.051668   -1.25    129.05   
    20. A(B   9,B   2,B  10)          128.17 -0.031730    0.83    129.00   
    21. A(B   3,B   2,B  10)          100.82 -0.120968    2.54    103.36   
    22. A(B   1,B   2,B   3)           41.51 -0.167003    3.75     45.26   
    23. A(B   1,B   2,B  10)           63.27  0.032973   -0.94     62.33   
    24. A(B   3,B   2,B   9)          130.91  0.155893   -3.44    127.47   
    25. A(B   1,B   2,B   9)          163.06  0.001479    0.10    163.16   
    26. A(B   1,B   3,B   2)           63.75  0.092646   -1.92     61.83   
    27. A(B   0,B   5,B   8)           88.59  0.036675   -1.43     87.15   
    28. A(B   8,B   5,B   9)           59.26 -0.000150    0.03     59.30   
    29. A(B   0,B   5,B   9)           79.04  0.076898   -3.27     75.77   
    30. A(B  10,B   6,B  11)           43.91 -0.029635    0.95     44.85   
    31. A(B   9,B   7,B  11)          120.14 -0.002028   -0.02    120.12   
    32. A(B   5,B   8,B   9)           76.17  0.011783   -0.49     75.68   
    33. A(B   2,B   9,B   4)           94.94  0.023654   -1.02     93.92   
    34. A(B   5,B   9,B   7)          163.17  0.019538   -0.57    162.60   
    35. A(B   4,B   9,B   7)          111.14 -0.037388    1.27    112.42   
    36. A(B   2,B   9,B   7)           74.53 -0.002161    0.25     74.79   
    37. A(B   4,B   9,B   5)           82.33  0.027002   -1.06     81.27   
    38. A(B   2,B   9,B   5)           94.85  0.014720   -0.66     94.19   
    39. A(B   7,B   9,B   8)          118.79  0.030931   -1.01    117.78   
    40. A(B   5,B   9,B   8)           44.57 -0.011633    0.45     45.02   
    41. A(B   4,B   9,B   8)          121.97  0.023753   -0.97    121.00   
    42. A(B   2,B   9,B   8)           72.90  0.016327   -0.72     72.18   
    43. A(B   1,B  10,B  11)          128.85  0.010062   -0.39    128.47   
    44. A(B   2,B  10,B   6)           75.43  0.019840   -0.67     74.77   
    45. A(B   1,B  10,B   6)           78.01 -0.007233    0.06     78.07   
    46. A(B   1,B  10,B   2)           53.29 -0.021678    0.67     53.97   
    47. A(B   6,B  10,B  11)           62.15  0.016920   -0.47     61.68   
    48. A(B   2,B  10,B  11)           85.02  0.037607   -1.18     83.84   
    49. A(B   6,B  11,B   7)          115.10  0.008184   -0.23    114.87   
    50. A(B   7,B  11,B  10)          114.59 -0.005319    0.22    114.81   
    51. A(B   6,B  11,B  10)           73.94  0.012715   -0.48     73.47   
    52. D(B   9,B   2,B   1,B   3)    -71.43  0.001558    0.03    -71.41   
    53. D(B   9,B   2,B   1,B  10)    136.18  0.004589   -0.10    136.08   
    54. D(B  10,B   2,B   1,B   3)    152.38 -0.003032    0.13    152.51   
    55. D(B   3,B   2,B   1,B  10)   -152.38  0.003032   -0.13   -152.51   
    56. D(B   1,B   3,B   2,B   9)    158.56 -0.050928    1.30    159.87   
    57. D(B   1,B   3,B   2,B  10)    -24.93  0.000336    0.11    -24.82   
    58. D(B   2,B   3,B   1,B  10)     32.93  0.028484   -0.76     32.18   
    59. D(B   9,B   8,B   5,B   0)     78.07  0.067685   -2.95     75.13   
    60. D(B   4,B   9,B   2,B   3)   -103.51  0.030908   -0.30   -103.81   
    61. D(B   8,B   9,B   7,B  11)     61.93  0.009827   -0.35     61.58   
    62. D(B   5,B   9,B   2,B   1)     35.42 -0.020000    0.37     35.79   
    63. D(B   5,B   9,B   2,B   3)    -20.81  0.060972   -1.50    -22.31   
    64. D(B   7,B   9,B   8,B   5)   -176.84 -0.003027    0.13   -176.71   
    65. D(B   7,B   9,B   2,B   1)   -157.87 -0.005070   -0.02   -157.89   
    66. D(B   5,B   9,B   7,B  11)     54.24  0.010095   -0.47     53.77   
    67. D(B   2,B   9,B   7,B  11)      1.94  0.009911   -0.25      1.69   
    68. D(B   7,B   9,B   5,B   8)      9.62 -0.001215    0.17      9.79   
    69. D(B   7,B   9,B   5,B   0)    -85.32  0.002318   -0.12    -85.43   
    70. D(B   4,B   9,B   5,B   8)    153.90  0.023794   -1.03    152.86   
    71. D(B   4,B   9,B   5,B   0)     58.97  0.027327   -1.32     57.64   
    72. D(B   4,B   9,B   2,B  10)     80.86 -0.033346    1.21     82.07   
    73. D(B   4,B   9,B   7,B  11)    -87.42 -0.025973    1.13    -86.28   
    74. D(B   4,B   9,B   2,B   1)    -47.27 -0.050064    1.56    -45.71   
    75. D(B   2,B   9,B   5,B   8)     59.55 -0.000270   -0.01     59.54   
    76. D(B   2,B   9,B   8,B   5)   -116.01 -0.013182    0.55   -115.45   
    77. D(B   4,B   9,B   8,B   5)    -30.93  0.018039   -0.82    -31.74   
    78. D(B   2,B   9,B   5,B   0)    -35.38  0.003263   -0.30    -35.68   
    79. D(B   5,B   9,B   2,B  10)    163.56 -0.003283    0.01    163.57   
    80. D(B   6,B  10,B   1,B   3)     44.75 -0.018577    0.37     45.12   
    81. D(B   6,B  10,B   1,B   2)     80.66  0.032034   -0.94     79.72   
    82. D(B   2,B  10,B   1,B   3)    -35.91 -0.050611    1.30    -34.60   
    83. D(B   2,B  10,B   6,B  11)    -92.06 -0.028414    0.89    -91.17   
    84. D(B   1,B  10,B   6,B  11)   -146.88 -0.005650    0.15   -146.73   
    85. D(B   6,B  10,B   2,B   9)    109.11  0.009962   -0.31    108.81   
    86. D(B   6,B  10,B   2,B   3)    -67.53 -0.048704    1.05    -66.47   
    87. D(B   6,B  10,B   2,B   1)    -85.76  0.019144   -0.42    -86.18   
    88. D(B   1,B  10,B   2,B   9)   -165.13 -0.009182    0.11   -165.02   
    89. D(B  11,B  10,B   2,B   1)   -148.25  0.010225   -0.20   -148.45   
    90. D(B   1,B  10,B   2,B   3)     18.23 -0.067848    1.48     19.70   
    91. D(B  11,B  10,B   1,B   3)      6.41 -0.025210    0.63      7.04   
    92. D(B  11,B  10,B   1,B   2)     42.31  0.025401   -0.67     41.64   
    93. D(B   7,B  11,B  10,B   6)   -110.72 -0.014622    0.47   -110.25   
    94. D(B   7,B  11,B  10,B   2)    -34.57 -0.011139    0.31    -34.26   
    95. D(B   7,B  11,B  10,B   1)    -67.37 -0.016595    0.40    -66.98   
    96. D(B   6,B  11,B  10,B   2)     76.14  0.003483   -0.16     75.99   
    97. D(B   6,B  11,B  10,B   1)     43.34 -0.001973   -0.07     43.27   
    98. D(B  10,B  11,B   7,B   9)     28.03 -0.004550    0.09     28.12   
    99. D(B   6,B  11,B   7,B   9)    -55.00 -0.020592    0.66    -54.34   
   100. D(B   7,B  11,B   6,B  10)    110.09 -0.002020    0.09    110.17   
    ----------------------------------------------------------------------------

Geometry step timings:
Preparation and reading OPT file:      0.000 s ( 1.781 %)
Internal coordinates            :      0.000 s ( 0.920 %)
B/P matrices and projection     :      0.001 s (19.528 %)
Hessian update/contruction      :      0.001 s (12.105 %)
Making the step                 :      0.002 s (43.397 %)
Converting the step to Cartesian:      0.000 s ( 3.341 %)
Storing new data                :      0.000 s ( 1.261 %)
Checking convergence            :      0.000 s ( 0.940 %)
Final printing                  :      0.001 s (16.727 %)
Total time                      :      0.005 s

Time for energy+gradient        :      0.098 s
Time for complete geometry iter :      0.104 s

         *************************************************************
         *                GEOMETRY OPTIMIZATION CYCLE   2            *
         *************************************************************
---------------------------------
CARTESIAN COORDINATES (ANGSTROEM)
---------------------------------
  B     0.612032   -0.269249    1.864337
  B    -1.638312    0.190656    0.973363
  B    -0.301646    0.113761    0.097377
  B    -1.281588   -1.047355    0.933964
  B     2.029788    0.771851    0.643077
  B     1.910858   -1.511530    0.895969
  B    -2.069823   -0.067508   -1.311041
  B     0.744227    0.857568   -1.716764
  B     0.865640   -1.701290   -0.109142
  B     1.508398   -0.078332   -0.444320
  B    -1.433163    1.437575   -0.240418
  B    -0.946411    1.303853   -1.586403

----------------------------
CARTESIAN COORDINATES (A.U.)
----------------------------
  NO LB    ZA    FRAG    MASS        X           Y           Z
   0 B   5.0000    0    10.810    1.156573   -0.508807    3.523087
   1 B   5.0000    0    10.810   -3.095961    0.360288    1.839390
   2 B   5.0000    0    10.810   -0.570028    0.214977    0.184017
   3 B   5.0000    0    10.810   -2.421851   -1.979214    1.764936
   4 B   5.0000    0    10.810    3.835743    1.458586    1.215238
   5 B   5.0000    0    10.810    3.610998   -2.856379    1.693136
   6 B   5.0000    0    10.810   -3.911398   -0.127571   -2.477508
   7 B   5.0000    0    10.810    1.406386    1.620568   -3.244213
   8 B   5.0000    0    10.810    1.635822   -3.214972   -0.206249
   9 B   5.0000    0    10.810    2.850459   -0.148025   -0.839642
  10 B   5.0000    0    10.810   -2.708286    2.716623   -0.454325
  11 B   5.0000    0    10.810   -1.788458    2.463924   -2.997867

      -----------------------------------------------------------      
     |                   =====================                   |     
     |                           x T B                           |     
     |                   =====================                   |     
     |                         S. Grimme                         |     
     |          Mulliken Center for Theoretical Chemistry        |     
     |                    University of Bonn                     |     
      -----------------------------------------------------------      

   * xtb version 6.6.1 (unknown) compiled by 'builduser@buildhost' on 2023-08-07

   xtb is free software: you can redistribute it and/or modify it under
   the terms of the GNU Lesser General Public License as published by
   the Free Software Foundation, either version 3 of the License, or
   (at your option) any later version.
   
   xtb is distributed in the hope that it will be useful,
   but WITHOUT ANY WARRANTY; without even the implied warranty of
   MERCHANTABILITY or FITNESS FOR A PARTICULAR PURPOSE.  See the
   GNU Lesser General Public License for more details.
   
   Cite this work as:
   * C. Bannwarth, E. Caldeweyher, S. Ehlert, A. Hansen, P. Pracht,
     J. Seibert, S. Spicher, S. Grimme, WIREs Comput. Mol. Sci., 2020, 11,
     e01493. DOI: 10.1002/wcms.1493
   
   for GFN2-xTB:
   * C. Bannwarth, S. Ehlert and S. Grimme., J. Chem. Theory Comput., 2019,
     15, 1652-1671. DOI: 10.1021/acs.jctc.8b01176
   for GFN1-xTB:
   * S. Grimme, C. Bannwarth, P. Shushkov, J. Chem. Theory Comput., 2017,
     13, 1989-2009. DOI: 10.1021/acs.jctc.7b00118
   for GFN0-xTB:
   * P. Pracht, E. Caldeweyher, S. Ehlert, S. Grimme, ChemRxiv, 2019, preprint.
     DOI: 10.26434/chemrxiv.8326202.v1
   for GFN-FF:
   * S. Spicher and S. Grimme, Angew. Chem. Int. Ed., 2020, 59, 15665-15673.
     DOI: 10.1002/anie.202004239
   
   for ALPB and GBSA implicit solvation:
   * S. Ehlert, M. Stahn, S. Spicher, S. Grimme, J. Chem. Theory Comput.,
     2021, 17, 4250-4261. DOI: 10.1021/acs.jctc.1c00471
   
   for DFT-D4:
   * E. Caldeweyher, C. Bannwarth and S. Grimme, J. Chem. Phys., 2017,
     147, 034112. DOI: 10.1063/1.4993215
   * E. Caldeweyher, S. Ehlert, A. Hansen, H. Neugebauer, S. Spicher,
     C. Bannwarth and S. Grimme, J. Chem. Phys., 2019, 150, 154122.
     DOI: 10.1063/1.5090222
   * E. Caldeweyher, J.-M. Mewes, S. Ehlert and S. Grimme, Phys. Chem. Chem. Phys.
     2020, 22, 8499-8512. DOI: 10.1039/D0CP00502A
   
   for sTDA-xTB:
   * S. Grimme and C. Bannwarth, J. Chem. Phys., 2016, 145, 054103.
     DOI: 10.1063/1.4959605
   
   in the mass-spec context:
   * V. Asgeirsson, C. Bauer and S. Grimme, Chem. Sci., 2017, 8, 4879.
     DOI: 10.1039/c7sc00601b
   * J. Koopman and S. Grimme, ACS Omega 2019, 4, 12, 15120-15133.
     DOI: 10.1021/acsomega.9b02011
   
   for metadynamics refer to:
   * S. Grimme, J. Chem. Theory Comput., 2019, 155, 2847-2862
     DOI: 10.1021/acs.jctc.9b00143
   
   for SPH calculations refer to:
   * S. Spicher and S. Grimme, J. Chem. Theory Comput., 2021, 17, 1701-1714
     DOI: 10.1021/acs.jctc.0c01306
   
   with help from (in alphabetical order)
   P. Atkinson, C. Bannwarth, F. Bohle, G. Brandenburg, E. Caldeweyher
   M. Checinski, S. Dohm, S. Ehlert, S. Ehrlich, I. Gerasimov, C. Hölzer
   A. Katbashev, J. Koopman, C. Lavigne, S. Lehtola, F. März, M. Müller,
   F. Musil, H. Neugebauer, J. Pisarek, C. Plett, P. Pracht, F. Pultar,
   J. Seibert, P. Shushkov, S. Spicher, M. Stahn, M. Steiner, T. Strunk,
   J. Stückrath, T. Rose, and J. Unsleber
   
 * started run on 2026/04/17 at 12:14:31.450     

           -------------------------------------------------
          |                Calculation Setup                |
           -------------------------------------------------

          program call               : /usr/bin/xtb random_d1.50_003_m3_XTB.xyz --grad -c 0 -u 2 -P 1 --namespace random_d1.50_003_m3 --input random_d1.50_003_m3_XTB.input.tmp --acc 0.200000
          calculation namespace      : random_d1.50_003_m3
          coordinate file            : random_d1.50_003_m3_XTB.xyz
          omp threads                :                     1

   ID    Z sym.   atoms
    1    5 B      1-12

           -------------------------------------------------
          |                 G F N 2 - x T B                 |
           -------------------------------------------------

        Reference                      10.1021/acs.jctc.8b01176
      * Hamiltonian:
        H0-scaling (s, p, d)           1.850000    2.230000    2.230000
        zeta-weighting                 0.500000
      * Dispersion:
        s8                             2.700000
        a1                             0.520000
        a2                             5.000000
        s9                             5.000000
      * Repulsion:
        kExp                           1.500000    1.000000
        rExp                           1.000000
      * Coulomb:
        alpha                          2.000000
        third order                    shell-resolved
        anisotropic                    true
        a3                             3.000000
        a5                             4.000000
        cn-shift                       1.200000
        cn-exp                         4.000000
        max-rad                        5.000000

q/qsh data taken from xtbrestart
CAMM data taken from xtbrestart

          ...................................................
          :                      SETUP                      :
          :.................................................:
          :  # basis functions                  48          :
          :  # atomic orbitals                  48          :
          :  # shells                           24          :
          :  # electrons                        36          :
          :  max. iterations                   250          :
          :  Hamiltonian                  GFN2-xTB          :
          :  restarted?                       true          :
          :  GBSA solvation                  false          :
          :  PC potential                    false          :
          :  electronic temp.          300.0000000     K    :
          :  accuracy                    0.2000000          :
          :  -> integral cutoff          0.3198970E+02      :
          :  -> integral neglect         0.2000000E-08      :
          :  -> SCF convergence          0.2000000E-06 Eh   :
          :  -> wf. convergence          0.2000000E-04 e    :
          :  Broyden damping             0.4000000          :
          ...................................................

 iter      E             dE          RMSdq      gap      omega  full diag
   1    -13.9264489 -0.139264E+02  0.259E+00    0.07       0.0  T
   2    -11.4683824  0.245807E+01  0.976E+00    0.35       1.0  T
   3    -13.6487012 -0.218032E+01  0.385E+00    0.21       1.0  T
   4    -13.7621120 -0.113411E+00  0.350E+00    0.06       1.0  T
   5    -13.5234541  0.238658E+00  0.497E+00    0.01       1.0  T
   6    -13.8488211 -0.325367E+00  0.249E+00    0.14       1.0  T
   7    -13.9057698 -0.569487E-01  0.192E+00    0.14       1.0  T
   8    -13.9654115 -0.596416E-01  0.108E+00    0.04       1.0  T
   9    -13.9511855  0.142260E-01  0.129E+00    0.09       1.0  T
  10    -13.9706544 -0.194689E-01  0.943E-01    0.08       1.0  T
  11    -13.9721290 -0.147458E-02  0.906E-01    0.09       1.0  T
  12    -13.9714612  0.667820E-03  0.911E-01    0.09       1.0  T
  13    -13.9728547 -0.139353E-02  0.837E-01    0.09       1.0  T
  14    -13.9781367 -0.528196E-02  0.547E-01    0.08       1.0  T
  15    -13.9777527  0.384000E-03  0.592E-01    0.08       1.0  T
  16    -13.9779726 -0.219931E-03  0.571E-01    0.08       1.0  T
  17    -13.9791750 -0.120236E-02  0.436E-01    0.08       1.0  T
  18    -13.9805489 -0.137393E-02  0.200E-01    0.07       1.0  T
  19    -13.9806499 -0.101028E-03  0.164E-01    0.07       1.0  T
  20    -13.9808113 -0.161392E-03  0.123E-01    0.07       1.0  T
  21    -13.9808962 -0.848826E-04  0.690E-02    0.07       1.0  T
  22    -13.9809031 -0.685767E-05  0.639E-02    0.07       1.0  T
  23    -13.9809305 -0.274106E-04  0.342E-02    0.07       1.0  T
  24    -13.9809378 -0.737005E-05  0.213E-02    0.07       1.4  T
  25    -13.9809410 -0.318816E-05  0.147E-02    0.07       2.0  T
  26    -13.9809424 -0.138715E-05  0.606E-03    0.07       4.8  T
  27    -13.9809425 -0.709755E-07  0.488E-03    0.07       5.9  T
  28    -13.9809427 -0.169010E-06  0.224E-03    0.07      12.9  T
  29    -13.9809427 -0.337784E-07  0.919E-04    0.07      31.4  T
  30    -13.9809427 -0.641610E-08  0.359E-04    0.07      80.4  T
  31    -13.9809427 -0.123709E-08  0.292E-05    0.07     987.8  T
  32    -13.9809427  0.142109E-12  0.301E-05    0.07     957.7  T

   *** convergence criteria satisfied after 32 iterations ***

         #    Occupation            Energy/Eh            Energy/eV
      -------------------------------------------------------------
         1        2.0000           -0.4386945             -11.9375
       ...           ...                  ...                  ...
        13        2.0000           -0.2796886              -7.6107
        14        2.0000           -0.2714431              -7.3863
        15        2.0000           -0.2602511              -7.0818
        16        2.0000           -0.2412477              -6.5647
        17        1.9949           -0.2240586              -6.0969
        18        1.0041           -0.2140392              -5.8243
        19        0.7843           -0.2086610              -5.6780 (HOMO)
        20        0.2167           -0.2062140              -5.6114 (LUMO)
        21        0.0000           -0.1939708              -5.2782
        22                         -0.1819691              -4.9516
        23                         -0.1705307              -4.6404
        24                         -0.1653731              -4.5000
       ...                                ...                  ...
        48                          2.2432092              61.0408
      -------------------------------------------------------------
                  HL-Gap            0.0024470 Eh            0.0666 eV
             Fermi-level           -0.2132428 Eh           -5.8026 eV

 transition dipole moment (au) for excitation:          18          19
     X       Y       Z   
  -0.8872   0.9175   0.2530  total (au/Debye):    1.301   3.307
 dE (eV)             :    0.146
 oscillator strength :  0.85838E-02

 SCC (total)                   0 d,  0 h,  0 min,  0.050 sec
 SCC setup                      ...        0 min,  0.000 sec (  0.292%)
 Dispersion                     ...        0 min,  0.000 sec (  0.179%)
 classical contributions        ...        0 min,  0.000 sec (  0.068%)
 integral evaluation            ...        0 min,  0.003 sec (  6.404%)
 iterations                     ...        0 min,  0.036 sec ( 71.794%)
 molecular gradient             ...        0 min,  0.006 sec ( 12.038%)
 printout                       ...        0 min,  0.005 sec (  9.172%)

         :::::::::::::::::::::::::::::::::::::::::::::::::::::
         ::                     SUMMARY                     ::
         :::::::::::::::::::::::::::::::::::::::::::::::::::::
         :: total energy             -13.718270118692 Eh    ::
         :: gradient norm              0.553988584446 Eh/a0 ::
         :: HOMO-LUMO gap              0.066585468301 eV    ::
         ::.................................................::
         :: SCC energy               -13.980942693358 Eh    ::
         :: -> isotropic ES            0.067634924485 Eh    ::
         :: -> anisotropic ES         -0.000158512034 Eh    ::
         :: -> anisotropic XC         -0.023362868240 Eh    ::
         :: -> dispersion             -0.015440874788 Eh    ::
         :: repulsion energy           0.262659786344 Eh    ::
         :: add. restraining           0.000000000000 Eh    ::
         :: total charge              -0.000000000023 e     ::
         :::::::::::::::::::::::::::::::::::::::::::::::::::::


Property printout bound to 'properties.out'

           -------------------------------------------------
          | TOTAL ENERGY              -13.718270118692 Eh   |
          | GRADIENT NORM               0.553988584446 Eh/α |
          | HOMO-LUMO GAP               0.066585468301 eV   |
           -------------------------------------------------

------------------------------------------------------------------------
 * finished run on 2026/04/17 at 12:14:31.513     
------------------------------------------------------------------------
 total:
 * wall-time:     0 d,  0 h,  0 min,  0.063 sec
 *  cpu-time:     0 d,  0 h,  0 min,  0.063 sec
 * ratio c/w:     0.999 speedup
 SCF:
 * wall-time:     0 d,  0 h,  0 min,  0.050 sec
 *  cpu-time:     0 d,  0 h,  0 min,  0.050 sec
 * ratio c/w:     1.000 speedup


-------------------------   --------------------
FINAL SINGLE POINT ENERGY       -13.718270118690
-------------------------   --------------------


-------------
DIPOLE MOMENT
-------------
                                X             Y             Z
Total Dipole Moment    :      0.49200       0.36800       0.16300
                        -----------------------------------------
Magnitude (a.u.)       :      0.63565
Magnitude (Debye)      :      1.61571


------------------
CARTESIAN GRADIENT
------------------

   1   B   :   -0.041289567    0.000650034    0.054911699
   2   B   :    0.120582401   -0.348461560    0.011227596
   3   B   :   -0.051701008    0.004929808    0.023902731
   4   B   :   -0.120743244    0.310737448    0.015368641
   5   B   :    0.020558514    0.009927875   -0.082919266
   6   B   :    0.001187566   -0.026974408   -0.035025596
   7   B   :   -0.027676627   -0.023517628   -0.014366098
   8   B   :    0.044974258    0.023096281   -0.035957320
   9   B   :    0.040591173   -0.017743918    0.006417963
  10   B   :    0.040913986   -0.002157330    0.089284869
  11   B   :    0.044909008    0.029616796   -0.102489674
  12   B   :   -0.072306457    0.039896602    0.069644456

Difference to translation invariance:
           :   -0.0000000000   -0.0000000000    0.0000000000

Difference to rotation invariance:
           :    0.0000000179    0.0000000424   -0.0000000084

Norm of the Cartesian gradient     ...    0.5539885844
RMS gradient                       ...    0.0923314307
MAX gradient                       ...    0.3484615596
------------------------------------------------------------------------------
                         ORCA GEOMETRY RELAXATION STEP
------------------------------------------------------------------------------

Reading the OPT-File                    .... done
Getting information on internals        .... done
Copying old internal coords+grads       .... done
Making the new internal coordinates     .... (2022 redundants) done
Validating the new internal coordinates .... (2022 redundants) done
Calculating the B-matrix                .... done
Calculating the G,G- and P matrices     .... done
Transforming gradient to internals      .... done
Projecting the internal gradient        .... done
Number of atoms                         ....  12
Number of internal coordinates          .... 100
Current Energy                          ....   -13.718270119 Eh
Current gradient norm                   ....     0.553988584 Eh/bohr
Maximum allowed component of the step   ....  0.300
Current trust radius                    ....  0.300
Updating the Hessian (BFGS)             .... done
Forming the augmented Hessian           .... done
Diagonalizing the augmented Hessian     .... done
Last element of RFO vector              ....  0.816007950
Lowest eigenvalues of augmented Hessian:
 -0.203061573  0.012935835  0.013364160  0.014733728  0.034854995
Length of the computed step             ....  0.708376282
Warning: the length of the step is outside the trust region - taking restricted step instead
The input lambda is                     ....     0.011910
   iter:   5  x=   -0.012500  g=  655.493771 f(x)=     9.477121
   iter:  10  x=   -0.468873  g=    1.264731 f(x)=     0.202071
   iter:  15  x=   -0.709507  g=    0.187933 f(x)=     0.000000
The output lambda is                    ....    -0.709507 (17 iterations)
The final length of the internal step   ....  0.300000000
Converting the step to Cartesian space:
 Initial RMS(Int)=    0.0300000000
Transforming coordinates:
 Iter   0:  RMS(Cart)=    0.0983514464 RMS(Int)=    0.0295828629
 Iter   5:  RMS(Cart)=    0.0000008025 RMS(Int)=    0.0000005317
done
Storing new coordinates                 .... done
The predicted energy change is          ....    -0.081207359
Previously predicted energy change      ....    -0.155359547
Actually observed energy change         ....    -0.149697185
Ratio of predicted to observed change   ....     0.963553176
New trust radius                        ....     0.450000000

                                .--------------------.
          ----------------------|Geometry convergence|-------------------------
          Item                value                   Tolerance       Converged
          ---------------------------------------------------------------------
          Energy change      -0.1496971853            0.0000010000      NO
          RMS gradient        0.0362107873            0.0000300000      NO
          MAX gradient        0.2420943376            0.0001000000      NO
          RMS step            0.0300000000            0.0006000000      NO
          MAX step            0.1214661344            0.0010000000      NO
          -------------------------------------------------------------------------
          ........................................................
          Max(Bonds)      0.0643      Max(Angles)    5.94
          Max(Dihed)        5.41      Max(Improp)    0.00
          ---------------------------------------------------------------------

The optimization has not yet converged - more geometry cycles are needed


    ---------------------------------------------------------------------------
                         Redundant Internal Coordinates
                            (Angstroem and degrees)

        Definition                    Value    dE/dq     Step     New-Value
    ----------------------------------------------------------------------------
     1. B(B   2,B   1)                1.6000 -0.020777  0.0071    1.6071   
     2. B(B   3,B   1)                1.2890 -0.242094  0.0643    1.3533   
     3. B(B   3,B   2)                1.7345 -0.042748  0.0051    1.7395   
     4. B(B   5,B   0)                2.0416  0.052710 -0.0342    2.0074   
     5. B(B   8,B   5)                1.4624 -0.020628  0.0103    1.4728   
     6. B(B   9,B   4)                1.4755 -0.048124  0.0214    1.4968   
     7. B(B   9,B   2)                1.8991  0.061088 -0.0413    1.8578   
     8. B(B   9,B   8)                1.7775  0.011392 -0.0071    1.7704   
     9. B(B   9,B   7)                1.7547  0.038091 -0.0258    1.7289   
    10. B(B   9,B   5)                2.0031  0.031460 -0.0225    1.9806   
    11. B(B  10,B   6)                1.9537  0.011319 -0.0101    1.9436   
    12. B(B  10,B   2)                1.7740  0.005678 -0.0086    1.7654   
    13. B(B  10,B   1)                1.7522  0.049126 -0.0254    1.7268   
    14. B(B  11,B   7)                1.7534  0.043646 -0.0288    1.7246   
    15. B(B  11,B   6)                1.7940  0.019528 -0.0119    1.7821   
    16. B(B  11,B  10)                1.4375 -0.067363  0.0289    1.4664   
    17. A(B   2,B   1,B  10)           63.71 -0.005069    0.13     63.85   
    18. A(B   2,B   1,B   3)           72.90  0.040098   -1.57     71.33   
    19. A(B   3,B   1,B  10)          129.04  0.028851   -1.15    127.89   
    20. A(B   9,B   2,B  10)          128.98 -0.018519    0.90    129.88   
    21. A(B   3,B   2,B  10)          103.36 -0.049202    1.17    104.53   
    22. A(B   1,B   2,B   3)           45.26 -0.074680    2.24     47.50   
    23. A(B   1,B   2,B  10)           62.32  0.020284   -0.94     61.38   
    24. A(B   3,B   2,B   9)          127.47  0.069573   -2.12    125.35   
    25. A(B   1,B   2,B   9)          163.19 -0.001616    0.09    163.28   
    26. A(B   1,B   3,B   2)           61.84  0.034583   -0.67     61.17   
    27. A(B   0,B   5,B   8)           87.15  0.038003   -2.48     84.67   
    28. A(B   8,B   5,B   9)           59.29 -0.002145    0.26     59.56   
    29. A(B   0,B   5,B   9)           75.77  0.081490   -5.94     69.83   
    30. A(B  10,B   6,B  11)           44.86 -0.024090    1.22     46.08   
    31. A(B   9,B   7,B  11)          120.12  0.003292   -0.37    119.75   
    32. A(B   5,B   8,B   9)           75.68  0.014284   -1.04     74.64   
    33. A(B   2,B   9,B   4)           93.92  0.021456   -1.50     92.42   
    34. A(B   5,B   9,B   7)          162.62  0.012642   -0.67    161.95   
    35. A(B   4,B   9,B   7)          112.39 -0.033426    2.11    114.51   
    36. A(B   2,B   9,B   7)           74.80 -0.008186    0.62     75.42   
    37. A(B   4,B   9,B   5)           81.27  0.029886   -2.08     79.19   
    38. A(B   2,B   9,B   5)           94.19  0.018403   -1.29     92.90   
    39. A(B   7,B   9,B   8)          117.79  0.024551   -1.43    116.36   
    40. A(B   5,B   9,B   8)           45.02 -0.012140    0.78     45.80   
    41. A(B   4,B   9,B   8)          120.99  0.027331   -2.02    118.97   
    42. A(B   2,B   9,B   8)           72.18  0.023100   -1.71     70.47   
    43. A(B   1,B  10,B  11)          128.47  0.011078   -0.72    127.75   
    44. A(B   2,B  10,B   6)           74.77  0.016492   -1.01     73.76   
    45. A(B   1,B  10,B   6)           78.07  0.000390   -0.30     77.77   
    46. A(B   1,B  10,B   2)           53.96 -0.015216    0.81     54.77   
    47. A(B   6,B  10,B  11)           61.68  0.011781   -0.53     61.14   
    48. A(B   2,B  10,B  11)           83.85  0.028169   -1.56     82.29   
    49. A(B   6,B  11,B   7)          114.87  0.004556   -0.31    114.56   
    50. A(B   7,B  11,B  10)          114.82 -0.005794    0.42    115.24   
    51. A(B   6,B  11,B  10)           73.46  0.012309   -0.69     72.77   
    52. D(B   9,B   2,B   1,B   3)    -71.41 -0.001396    0.30    -71.11   
    53. D(B   9,B   2,B   1,B  10)    136.08  0.000386    0.19    136.27   
    54. D(B  10,B   2,B   1,B   3)    152.51 -0.001781    0.11    152.62   
    55. D(B   3,B   2,B   1,B  10)   -152.51  0.001781   -0.11   -152.62   
    56. D(B   1,B   3,B   2,B   9)    159.80 -0.021765    0.81    160.60   
    57. D(B   1,B   3,B   2,B  10)    -24.84 -0.001101    0.20    -24.64   
    58. D(B   2,B   3,B   1,B  10)     32.20  0.015316   -0.71     31.49   
    59. D(B   9,B   8,B   5,B   0)     75.13  0.072095   -5.41     69.71   
    60. D(B   4,B   9,B   2,B   3)   -103.76 -0.000629    0.94   -102.83   
    61. D(B   8,B   9,B   7,B  11)     61.58  0.011678   -0.88     60.70   
    62. D(B   5,B   9,B   2,B   1)     35.77 -0.000545   -0.52     35.26   
    63. D(B   5,B   9,B   2,B   3)    -22.25  0.031829   -1.36    -23.60   
    64. D(B   7,B   9,B   8,B   5)   -176.71 -0.002344    0.21   -176.50   
    65. D(B   7,B   9,B   2,B   1)   -157.89  0.007052   -0.80   -158.70   
    66. D(B   5,B   9,B   7,B  11)     53.77  0.013395   -1.20     52.57   
    67. D(B   2,B   9,B   7,B  11)      1.69  0.003392   -0.04      1.65   
    68. D(B   7,B   9,B   5,B   8)      9.78 -0.002299    0.41     10.19   
    69. D(B   7,B   9,B   5,B   0)    -85.43  0.001791   -0.22    -85.65   
    70. D(B   4,B   9,B   5,B   8)    152.86  0.026796   -2.08    150.78   
    71. D(B   4,B   9,B   5,B   0)     57.65  0.030885   -2.71     54.94   
    72. D(B   4,B   9,B   2,B  10)     82.05 -0.026878    1.73     83.78   
    73. D(B   4,B   9,B   7,B  11)    -86.28 -0.026735    1.98    -84.30   
    74. D(B   4,B   9,B   2,B   1)    -45.74 -0.033003    1.77    -43.96   
    75. D(B   2,B   9,B   5,B   8)     59.54  0.005873   -0.59     58.95   
    76. D(B   2,B   9,B   8,B   5)   -115.45 -0.011180    0.60   -114.84   
    77. D(B   4,B   9,B   8,B   5)    -31.73  0.019337   -1.62    -33.35   
    78. D(B   2,B   9,B   5,B   0)    -35.68  0.009963   -1.21    -36.89   
    79. D(B   5,B   9,B   2,B  10)    163.56  0.005580   -0.56    163.00   
    80. D(B   6,B  10,B   1,B   3)     45.11 -0.005603    0.03     45.15   
    81. D(B   6,B  10,B   1,B   2)     79.73  0.021429   -1.12     78.61   
    82. D(B   2,B  10,B   1,B   3)    -34.62 -0.027032    1.15    -33.46   
    83. D(B   2,B  10,B   6,B  11)    -91.18 -0.020658    1.13    -90.06   
    84. D(B   1,B  10,B   6,B  11)   -146.74 -0.003634    0.16   -146.57   
    85. D(B   6,B  10,B   2,B   9)    108.79  0.005142   -0.13    108.67   
    86. D(B   6,B  10,B   2,B   3)    -66.47 -0.021624    0.65    -65.82   
    87. D(B   6,B  10,B   2,B   1)    -86.16  0.007824   -0.19    -86.35   
    88. D(B   1,B  10,B   2,B   9)   -165.05 -0.002682    0.06   -164.99   
    89. D(B  11,B  10,B   2,B   1)   -148.44  0.002328    0.01   -148.42   
    90. D(B   1,B  10,B   2,B   3)     19.69 -0.029447    0.83     20.53   
    91. D(B  11,B  10,B   1,B   3)      7.04 -0.013132    0.52      7.56   
    92. D(B  11,B  10,B   1,B   2)     41.66  0.013900   -0.63     41.02   
    93. D(B   7,B  11,B  10,B   6)   -110.25 -0.010628    0.66   -109.59   
    94. D(B   7,B  11,B  10,B   2)    -34.26 -0.006503    0.32    -33.94   
    95. D(B   7,B  11,B  10,B   1)    -66.98 -0.007480    0.29    -66.69   
    96. D(B   6,B  11,B  10,B   2)     75.99  0.004125   -0.35     75.65   
    97. D(B   6,B  11,B  10,B   1)     43.27  0.003148   -0.37     42.89   
    98. D(B  10,B  11,B   7,B   9)     28.11  0.000858   -0.14     27.96   
    99. D(B   6,B  11,B   7,B   9)    -54.35 -0.013088    0.62    -53.73   
   100. D(B   7,B  11,B   6,B  10)    110.18 -0.002371    0.24    110.42   
    ----------------------------------------------------------------------------

Geometry step timings:
Preparation and reading OPT file:      0.000 s ( 0.667 %)
Internal coordinates            :      0.000 s ( 1.000 %)
B/P matrices and projection     :      0.001 s (19.933 %)
Hessian update/contruction      :      0.001 s (13.511 %)
Making the step                 :      0.002 s (41.956 %)
Converting the step to Cartesian:      0.000 s ( 2.911 %)
[...]
         :: gradient norm              0.047142060482 Eh/a0 ::
         :: HOMO-LUMO gap              1.264393086372 eV    ::
         ::.................................................::
         :: SCC energy               -14.480833782033 Eh    ::
         :: -> isotropic ES            0.073554801368 Eh    ::
         :: -> anisotropic ES          0.000874767514 Eh    ::
         :: -> anisotropic XC         -0.026129005314 Eh    ::
         :: -> dispersion             -0.010242351633 Eh    ::
         :: repulsion energy           0.235825314909 Eh    ::
         :: add. restraining           0.000000000000 Eh    ::
         :: total charge              -0.000000000007 e     ::
         :::::::::::::::::::::::::::::::::::::::::::::::::::::


Property printout bound to 'properties.out'

           -------------------------------------------------
          | TOTAL ENERGY              -14.245004831749 Eh   |
          | GRADIENT NORM               0.047142060482 Eh/α |
          | HOMO-LUMO GAP               1.264393086372 eV   |
           -------------------------------------------------

------------------------------------------------------------------------
 * finished run on 2026/04/17 at 12:14:35.018     
------------------------------------------------------------------------
 total:
 * wall-time:     0 d,  0 h,  0 min,  0.038 sec
 *  cpu-time:     0 d,  0 h,  0 min,  0.038 sec
 * ratio c/w:     0.999 speedup
 SCF:
 * wall-time:     0 d,  0 h,  0 min,  0.026 sec
 *  cpu-time:     0 d,  0 h,  0 min,  0.025 sec
 * ratio c/w:     0.998 speedup


-------------------------   --------------------
FINAL SINGLE POINT ENERGY       -14.245004831750
-------------------------   --------------------


-------------
DIPOLE MOMENT
-------------
                                X             Y             Z
Total Dipole Moment    :     -0.18600       0.24400       0.32700
                        -----------------------------------------
Magnitude (a.u.)       :      0.44840
Magnitude (Debye)      :      1.13974


------------------
CARTESIAN GRADIENT
------------------

   1   B   :    0.005353947   -0.002198895    0.005122076
   2   B   :   -0.001107018   -0.010145129    0.003572934
   3   B   :    0.011343132    0.001852762    0.001720813
   4   B   :    0.009769331   -0.003351498   -0.004977329
   5   B   :   -0.003450564    0.010442140    0.002964603
   6   B   :   -0.020438664   -0.007613955   -0.007190833
   7   B   :   -0.001883450   -0.007271893    0.006566081
   8   B   :   -0.011159382    0.008010054   -0.001653934
   9   B   :    0.003648781    0.018615898    0.003803893
  10   B   :    0.000838845   -0.010923657    0.000011487
  11   B   :   -0.007110123    0.002966696   -0.001341858
  12   B   :    0.014195165   -0.000382524   -0.008597934

Difference to translation invariance:
           :    0.0000000000    0.0000000000    0.0000000000

Difference to rotation invariance:
           :   -0.0000000531   -0.0000001970   -0.0000001106

Norm of the Cartesian gradient     ...    0.0471420605
RMS gradient                       ...    0.0078570101
MAX gradient                       ...    0.0204386642
------------------------------------------------------------------------------
                         ORCA GEOMETRY RELAXATION STEP
------------------------------------------------------------------------------

Reading the OPT-File                    .... done
Getting information on internals        .... done
Copying old internal coords+grads       .... done
Making the new internal coordinates     .... (2022 redundants) done
Validating the new internal coordinates .... (2022 redundants) done
Calculating the B-matrix                .... done
Calculating the G,G- and P matrices     .... done
Transforming gradient to internals      .... done
Projecting the internal gradient        .... done
Number of atoms                         ....  12
Number of internal coordinates          .... 100
Current Energy                          ....   -14.245004832 Eh
Current gradient norm                   ....     0.047142060 Eh/bohr
Maximum allowed component of the step   ....  0.300
Current trust radius                    ....  0.700
Updating the Hessian (BFGS)             .... done
Forming the augmented Hessian           .... done
Diagonalizing the augmented Hessian     .... done
Last element of RFO vector              ....  0.830024618
Lowest eigenvalues of augmented Hessian:
 -0.007327733  0.003890284  0.010199117  0.015907375  0.016115645
Length of the computed step             ....  0.671940017
The final length of the internal step   ....  0.671940017
Converting the step to Cartesian space:
 Initial RMS(Int)=    0.0671940017
Transforming coordinates:
 Iter   0:  RMS(Cart)=    0.0704171909 RMS(Int)=    0.6284138787
 Iter   5:  RMS(Cart)=    0.0000000468 RMS(Int)=    0.0000000263
done
Storing new coordinates                 .... done
The predicted energy change is          ....    -0.005318115
Previously predicted energy change      ....    -0.003658920
Actually observed energy change         ....    -0.003661390
Ratio of predicted to observed change   ....     1.000675101
New trust radius                        ....     0.700000000

                                .--------------------.
          ----------------------|Geometry convergence|-------------------------
          Item                value                   Tolerance       Converged
          ---------------------------------------------------------------------
          Energy change      -0.0036613902            0.0000010000      NO
          RMS gradient        0.0065999790            0.0000300000      NO
          MAX gradient        0.0255893425            0.0001000000      NO
          RMS step            0.0671940017            0.0006000000      NO
          MAX step            0.2847173156            0.0010000000      NO
          -------------------------------------------------------------------------
          ........................................................
          Max(Bonds)      0.1329      Max(Angles)    3.64
          Max(Dihed)       16.31      Max(Improp)    0.00
          ---------------------------------------------------------------------

The optimization has not yet converged - more geometry cycles are needed


    ---------------------------------------------------------------------------
                         Redundant Internal Coordinates
                            (Angstroem and degrees)

        Definition                    Value    dE/dq     Step     New-Value
    ----------------------------------------------------------------------------
     1. B(B   2,B   1)                1.7359 -0.000637 -0.0147    1.7212   
     2. B(B   3,B   1)                1.5262  0.005812 -0.0111    1.5151   
     3. B(B   3,B   2)                1.9270 -0.001955  0.0212    1.9482   
     4. B(B   5,B   0)                1.8399 -0.003215 -0.0603    1.7796   
     5. B(B   8,B   5)                1.5336 -0.007971  0.0239    1.5576   
     6. B(B   9,B   4)                1.5276 -0.003967 -0.0174    1.5103   
     7. B(B   9,B   2)                2.9938 -0.015034  0.0818    3.0756   
     8. B(B   9,B   8)                3.0474 -0.006654  0.1273    3.1747   
     9. B(B   9,B   7)                1.5561  0.000186 -0.0068    1.5493   
    10. B(B   9,B   5)                2.3744  0.005721  0.1329    2.5073   
    11. B(B  10,B   6)                2.0961 -0.000527  0.0588    2.1549   
    12. B(B  10,B   2)                1.8994  0.005190 -0.0006    1.8989   
    13. B(B  10,B   1)                1.5416  0.004576 -0.0142    1.5274   
    14. B(B  11,B   7)                1.5230 -0.012490  0.0150    1.5380   
    15. B(B  11,B   6)                1.7475  0.006079  0.0052    1.7527   
    16. B(B  11,B  10)                1.5423  0.007575 -0.0108    1.5315   
    17. A(B   2,B   1,B  10)           70.55  0.001306    0.70     71.25   
    18. A(B   2,B   1,B   3)           72.09 -0.001832    1.52     73.61   
    19. A(B   3,B   1,B  10)          115.60 -0.001475    0.84    116.44   
    20. A(B   9,B   2,B  10)          108.04 -0.001362   -0.50    107.54   
    21. A(B   3,B   2,B  10)           85.44  0.001641   -0.87     84.57   
    22. A(B   1,B   2,B   3)           48.91  0.002247   -0.64     48.26   
    23. A(B   1,B   2,B  10)           49.93  0.000697   -0.28     49.65   
    24. A(B   3,B   2,B   9)          109.58 -0.006311    0.28    109.86   
    25. A(B   1,B   2,B   9)          143.73 -0.003298   -1.07    142.65   
    26. A(B   1,B   3,B   2)           59.00 -0.000415   -0.88     58.12   
    27. A(B   0,B   5,B   8)           81.63 -0.002613   -0.62     81.01   
    28. A(B   8,B   5,B   9)          100.26 -0.002928   -0.17    100.09   
    29. A(B   0,B   5,B   9)           48.67  0.002464   -0.73     47.94   
    30. A(B  10,B   6,B  11)           46.22  0.002070   -1.50     44.72   
    31. A(B   9,B   7,B  11)          152.09 -0.001619    0.43    152.52   
    32. A(B   5,B   8,B   9)           50.06  0.003535    1.05     51.11   
    33. A(B   2,B   9,B   4)           84.13 -0.012114    0.74     84.87   
    34. A(B   5,B   9,B   7)          104.69 -0.018303   -2.75    101.94   
    35. A(B   4,B   9,B   7)          140.52 -0.006696   -2.09    138.43   
    36. A(B   2,B   9,B   7)           59.49  0.004158   -1.23     58.25   
    37. A(B   4,B   9,B   5)           39.43  0.009265   -3.64     35.79   
    38. A(B   2,B   9,B   5)           63.19 -0.025589   -2.08     61.11   
    39. A(B   7,B   9,B   8)           75.02 -0.017594   -1.84     73.17   
    40. A(B   5,B   9,B   8)           29.68 -0.000607   -0.89     28.80   
    41. A(B   4,B   9,B   8)           67.74  0.008370   -2.89     64.85   
    42. A(B   2,B   9,B   8)           44.17 -0.025372   -0.86     43.30   
    43. A(B   1,B  10,B  11)          133.47 -0.002507    0.01    133.48   
    44. A(B   2,B  10,B   6)           53.02 -0.000737   -1.16     51.86   
    45. A(B   1,B  10,B   6)           79.09 -0.004389    0.94     80.04   
    46. A(B   1,B  10,B   2)           59.52 -0.002003   -0.42     59.09   
    47. A(B   6,B  10,B  11)           54.89  0.001742   -1.33     53.56   
    48. A(B   2,B  10,B  11)           84.69  0.000832   -0.40     84.30   
    49. A(B   6,B  11,B   7)           66.73 -0.000533   -3.57     63.15   
    50. A(B   7,B  11,B  10)          134.87 -0.002686    1.99    136.86   
    51. A(B   6,B  11,B  10)           78.89 -0.003812    2.83     81.72   
    52. D(B   9,B   2,B   1,B   3)     64.09 -0.005090    4.20     68.29   
    53. D(B   9,B   2,B   1,B  10)    -62.47 -0.003622    4.48    -57.99   
    54. D(B  10,B   2,B   1,B   3)    126.56 -0.001468   -0.28    126.29   
    55. D(B   3,B   2,B   1,B  10)   -126.56  0.001468    0.28   -126.29   
    56. D(B   1,B   3,B   2,B   9)   -145.61 -0.000153    0.98   -144.62   
    57. D(B   1,B   3,B   2,B  10)    -38.07 -0.001210   -0.02    -38.09   
    58. D(B   2,B   3,B   1,B  10)     57.12  0.001305    1.25     58.37   
    59. D(B   9,B   8,B   5,B   0)     45.17  0.002766   -0.93     44.23   
    60. D(B   4,B   9,B   2,B   3)    -73.94 -0.003204    2.88    -71.07   
    61. D(B   8,B   9,B   7,B  11)     54.99 -0.015315    4.20     59.19   
    62. D(B   5,B   9,B   2,B   1)    -84.84  0.006229   -4.75    -89.59   
    63. D(B   5,B   9,B   2,B   3)    -38.83  0.003373   -1.55    -40.38   
    64. D(B   7,B   9,B   8,B   5)    178.67 -0.008972    1.43    180.10   
    65. D(B   7,B   9,B   2,B   1)     44.03  0.001777   -6.34     37.70   
    66. D(B   5,B   9,B   7,B  11)     55.67 -0.010793    0.42     56.09   
    67. D(B   2,B   9,B   7,B  11)      9.76  0.003805    4.89     14.64   
    68. D(B   7,B   9,B   5,B   8)     -1.33 -0.008739    4.85      3.52   
    69. D(B   7,B   9,B   5,B   0)    -70.45 -0.009257    5.60    -64.85   
    70. D(B   4,B   9,B   5,B   8)    158.30 -0.000993    6.07    164.37   
    71. D(B   4,B   9,B   5,B   0)     89.17 -0.001511    6.83     96.00   
    72. D(B   4,B   9,B   2,B  10)   -165.50 -0.002417    3.95   -161.55   
    73. D(B   4,B   9,B   7,B  11)     35.32 -0.004220   16.31     51.63   
    74. D(B   4,B   9,B   2,B   1)   -119.96 -0.000348   -0.32   -120.28   
    75. D(B   2,B   9,B   5,B   8)     42.57 -0.007544    0.82     43.39   
    76. D(B   2,B   9,B   8,B   5)   -119.94  0.008642    1.68   -118.26   
    77. D(B   4,B   9,B   8,B   5)    -14.70 -0.002712    5.37     -9.33   
    78. D(B   2,B   9,B   5,B   0)    -26.56 -0.008062    1.57    -24.99   
    79. D(B   5,B   9,B   2,B  10)   -130.38  0.004160   -0.48   -130.86   
    80. D(B   6,B  10,B   1,B   3)     -4.62  0.001662   -3.89     -8.51   
    81. D(B   6,B  10,B   1,B   2)     53.32  0.001327   -2.07     51.25   
    82. D(B   2,B  10,B   1,B   3)    -57.94  0.000335   -1.83    -59.77   
    83. D(B   2,B  10,B   6,B  11)   -112.82 -0.000232   -1.21   -114.03   
    84. D(B   1,B  10,B   6,B  11)   -172.71 -0.000860   -0.69   -173.41   
    85. D(B   6,B  10,B   2,B   9)     46.82  0.000156   -1.68     45.14   
    86. D(B   6,B  10,B   2,B   3)    -62.30  0.006315   -2.31    -64.62   
    87. D(B   6,B  10,B   2,B   1)    -99.69  0.004085   -2.06   -101.75   
    88. D(B   1,B  10,B   2,B   9)    146.51 -0.003928    0.38    146.89   
    89. D(B  11,B  10,B   2,B   1)   -148.92  0.002867   -0.50   -149.42   
    90. D(B   1,B  10,B   2,B   3)     37.39  0.002230   -0.26     37.13   
    91. D(B  11,B  10,B   1,B   3)    -12.84  0.002800   -2.85    -15.69   
    92. D(B  11,B  10,B   1,B   2)     45.10  0.002465   -1.02     44.07   
    93. D(B   7,B  11,B  10,B   6)    -40.21  0.003874    4.28    -35.92   
    94. D(B   7,B  11,B  10,B   2)      7.49  0.003072    2.76     10.25   
    95. D(B   7,B  11,B  10,B   1)    -30.32  0.002140    3.54    -26.78   
    96. D(B   6,B  11,B  10,B   2)     47.69 -0.000802   -1.52     46.17   
    97. D(B   6,B  11,B  10,B   1)      9.88 -0.001734   -0.74      9.14   
    98. D(B  10,B  11,B   7,B   9)    -17.07 -0.006272   -7.93    -25.00   
    99. D(B   6,B  11,B   7,B   9)    -60.66 -0.001413   -6.32    -66.98   
   100. D(B   7,B  11,B   6,B  10)    150.13  0.000965    2.64    152.77   
    ----------------------------------------------------------------------------

Geometry step timings:
Preparation and reading OPT file:      0.000 s ( 0.721 %)
Internal coordinates            :      0.000 s ( 0.994 %)
B/P matrices and projection     :      0.001 s (17.350 %)
Hessian update/contruction      :      0.001 s (22.744 %)
Making the step                 :      0.001 s (28.436 %)
Converting the step to Cartesian:      0.000 s ( 3.729 %)
Storing new data                :      0.000 s ( 1.765 %)
Checking convergence            :      0.000 s ( 1.740 %)
Final printing                  :      0.001 s (22.496 %)
Total time                      :      0.004 s

Time for energy+gradient        :      0.059 s
Time for complete geometry iter :      0.064 s




    ----------------------------------------------------------------------------
                                  WARNING !!!
       The optimization did not converge but reached the maximum number of
       optimization cycles.
       Please check your results very carefully.
    ----------------------------------------------------------------------------



--------------------------------
SUGGESTED CITATIONS FOR THIS RUN
--------------------------------

Below you find a list of papers that are relevant to this ORCA run
We neither can nor want to force you to cite these papers, but we appreciate if you do
You receive ORCA, which is the product of decades of hard work by many enthusiastic individuals, for free
The only thing we kindly ask in return is that you cite our papers,
We deeply appreciate it, if you show your appreciation for ORCA by not just citing the generic ORCA reference.

Please note that relegating all ORCA citations to the supporting information does *not* help us.
SI sections are not indexed - citations you put there will not count into any citation statistics
But we need these citations in order to attract the funding resources that allow us to do what we are doing

Therefore, if you are a happy ORCA user, please consider citing a few of the papers listed below in the main body of your paper

In addition to the list printed below, the program has created the file random_d1.50_003_m3.bibtex that contains the list in bibtex format
You can import this file easily into all common literature databanks and citation aid programs

It goes without saying that in many instances, there are alternative algorithms to achieve similar
results as the ones you have gotten from ORCA. It is, of course, also the case that in some instances
ORCA just re-implements algorithms worked out by others. We are fully aware of that and we are also
fully appreciative of our colleagues work. Hence this citation list should not be read as indicating
that the listed papers, which are focused on our own work, are the only ones worth citing. It simply
meant to make it easier for users to cite ORCA specific papers. It is not a substitute for doing your
own literature research and citing the relevant literature in a scientifically appropriate manner.

List of essential papers. We consider these as the minimum necessary citations

  1. Bannwarth, C.; Ehlert, S.; Grimme, S.
     GFN2-xTB—An Accurate and Broadly Parametrized Self-Consistent Tight-Binding Quantum Chemical Method with Multipole Electrostatics and Density-Dependent Dispersion Contributions
     J. Chem. Theory Comput. 2019 15(3), 1652-1671
     doi.org/10.1021/acs.jctc.8b01176
  2. Neese, F.
     Software update: the ORCA program system, version 6.0
     WIRES Comput. Molec. Sci. 2025 15(1), e70019
     doi.org/10.1002/wcms.70019

List of papers to cite with high priority. The work reported in these papers was absolutely
necessary for this run to complete.
Our perspective: the developers of density functionals and basis sets usually get cited in chemistry papers
Good! But without the algorithms to do something with them, the functionals or basis sets would not do anything.
Hence, in our opinion, the algorithm design and method developments papers are equally worthy of getting cited

  1. Bannwarth, C.; Caldeweyher, E.; Ehlert, S.; Hansen, A.; Pracht, P.; Seibert, J.; Spicher, S.; Grimme, S.
     Extended tight-binding quantum chemistry methods
     WIRES Comput. Molec. Sci. 2020 11(2), e1493
     doi.org/10.1002/wcms.1493

List of suggested additional citations. These are papers that are important in the 'surrounding' of 
of this run, or papers that preceded the highly important papers. If you like your results we are grateful for a citation.

  1. Neese, F.
     The ORCA program system
     WIRES Comput. Molec. Sci. 2012 2(1), 73-78
     doi.org/10.1002/wcms.81
  2. Neese, F.
     Software update: the ORCA program system, version 4.0
     WIRES Comput. Molec. Sci. 2018 8(1), 1-6
     doi.org/10.1002/wcms.1327
  3. Neese, F.; Wennmohs, F.; Becker, U.; Riplinger, C.
     The ORCA quantum chemistry program package
     J. Chem. Phys. 2020 152(22), 224108
     doi.org/10.1063/5.0004608
  4. Neese, F.
     Software update: The ORCA program system—Version 5.0
     WIRES Comput. Molec. Sci. 2022 12(1), e1606
     doi.org/10.1002/wcms.1606

List of optional additional citations

  1. Neese, F.
     Approximate second-order SCF convergence for spin unrestricted wavefunctions
     Chem. Phys. Lett. 2000 325(1-3), 93-98
     doi.org/10.1016/s0009-2614(00)00662-x

Timings for individual modules:

Sum of individual times          ...        3.291 sec (=   0.055 min)
Geometry relaxation              ...        0.296 sec (=   0.005 min)   9.0 %
XTB module                       ...        2.995 sec (=   0.050 min)  91.0 %
                             ****ORCA TERMINATED NORMALLY****
TOTAL RUN TIME: 0 days 0 hours 0 minutes 3 seconds 875 msec
