
                                 *****************
                                 * O   R   C   A *
                                 *****************

                                            #,                                       
                                            ###                                      
                                            ####                                     
                                            #####                                    
                                            ######                                   
                                           ########,                                 
                                     ,,################,,,,,                         
                               ,,#################################,,                 
                          ,,##########################################,,             
                       ,#########################################, ''#####,          
                    ,#############################################,,   '####,        
                  ,##################################################,,,,####,       
                ,###########''''           ''''###############################       
              ,#####''   ,,,,##########,,,,          '''####'''          '####       
            ,##' ,,,,###########################,,,                        '##       
           ' ,,###''''                  '''############,,,                           
         ,,##''                                '''############,,,,        ,,,,,,###''
      ,#''                                            '''#######################'''  
     '                                                          ''''####''''         
             ,#######,   #######,   ,#######,      ##                                
            ,#'     '#,  ##    ##  ,#'     '#,    #''#        ,####,    ,#,          
            ##       ##  ##   ,#'  ##            #'  '#       #'       ,# #          
            ##       ##  #######   ##           ,######,      #####,      #          
            '#,     ,#'  ##    ##  '#,     ,#' ,#      #,     #,   #      #          
             '#######'   ##     ##  '#######'  #'      '#     '####' #    #          



                #########################################################
                #                        -***-                          #
                #          Department of theory and spectroscopy        #
                #                                                       #
                #                      Frank Neese                      #
                #                                                       #
                #     Directorship, Architecture, Infrastructure        #
                #                    SHARK, DRIVERS                     #
                #        Core code/Algorithms in most modules           #
                #                                                       #
                #        Max Planck Institute fuer Kohlenforschung      #
                #                Kaiser Wilhelm Platz 1                 #
                #                 D-45470 Muelheim/Ruhr                 #
                #                      Germany                          #
                #                                                       #
                #                  All rights reserved                  #
                #                        -***-                          #
                #########################################################


                         Program Version 6.1.1  -  RELEASE   -
                                (GIT: $487d211c$)
                          ($2025-11-21 10:33:24 +0100$)
                                                                         
                                  - NO-DMRG VERSION -                    
                                                                         


 With contributions from (in alphabetic order):
[Max-Planck-Institut fuer Kohlenforschung]                               
  Daniel Aravena         : Magnetic Suceptibility                        
  Michael Atanasov       : Ab Initio Ligand Field Theory (pilot matlab implementation)
  Alexander A. Auer      : GIAO ZORA, VPT2 properties, NMR spectrum      
  Ute Becker             : All parallelization in ORCA, NUMFREQ, NUMCALC 
  Giovanni Bistoni       : ED, misc. LED, open-shell LED, HFLD           
  Dmytro Bykov           : pre 5.0 version of the SCF Hessian            
  Marcos Casanova-Páez   : Triplet and SCS-CIS(D). UHF-(DLPNO)-IP/EA/STEOM-CCSD. UHF-CVS-IP/STEOM-CCSD   
  Vijay G. Chilkuri      : MRCI spin determinant printing, contributions to CSF-ICE 
  Pauline Colinet        : FMM embedding                                 
  Dipayan Datta          : RHF DLPNO-CCSD density                        
  Achintya Kumar Dutta   : EOM-CC, STEOM-CC                              
  Nicolas Foglia         : Exact transition moments, OPA infrastructure, MCD improvements    
  Dmitry Ganyushin       : Spin-Orbit,Spin-Spin,Magnetic field MRCI      
  Miquel Garcia-Rates    : C-PCM and meta-GGA Hessian, CCSD/C-PCM, Gaussian charge scheme 
  Tiago L. C. Gouveia    : GS-ROHF, GS-ROCIS                             
  Yang Guo               : DLPNO-NEVPT2, F12-NEVPT2, CIM, IAO-localization        
  Andreas Hansen         : Spin unrestricted coupled pair/coupled cluster methods 
  Ingolf Harden          : AUTO-CI MPn and infrastructure                
  Benjamin Helmich-Paris : MC-RPA, TRAH-(SCF,CASSCF), AVAS, COSX integrals, SCF dyn. polar., MC-PDFT, srDFT 
  Lee Huntington         : MR-EOM, pCC                                   
  Robert Izsak           : Overlap fitted RIJCOSX, COSX-SCS-MP3, EOM     
  Riya Kayal             : Wick's Theorem for AUTO-CI, AUTO-CI UHF-CCSDT 
  Emily Kempfer          : AUTO-CI RHF CISDT and CCSDT, approximate NEVPT4
  Christian Kollmar      : KDIIS, OOCD, Brueckner-CCSD(T), CCSD density, CASPT2, CASPT2-K, improved NEVPT2 
  Axel Koslowski         : Symmetry handling                             
  Simone Kossmann        : meta-GGA functionals, TD-DFT gradient, OOMP2, (MP2 Hessian; deprecated post 5.0) 
  Lucas Lang             : DCDCAS, Hyperfine gauge corrections, ICE-SOC+SSC
  Marvin Lechner         : AUTO-CI (C++ implementation), FIC-MRCC        
  Spencer Leger          : CASSCF response                               
  Dagmar Lenk            : GEPOL surface, SMD, ORCA-2-JSON               
  Dimitrios Liakos       : Extrapolation schemes; Compound Job, Property file
  Dimitrios Manganas     : Further ROCIS development; embedding schemes. LFT, Crystal Embedding 
  Dimitrios Pantazis     : SARC Basis sets                               
  Anastasios Papadopoulos: AUTO-CI, single reference methods and gradients 
  Taras Petrenko         : pre 6.0 DFT Hessian and TD-DFT gradient,  ECA, NRVS 
  Petra Pikulova         : Analytic Raman intensities                    
  Peter Pinski           : DLPNO-MP2, DLPNO-MP2 Gradient                 
  Shashank Vittal Rao    : ES-AILFT, MagRelax                            
  Christoph Reimann      : Effective Core Potentials                     
  Marius Retegan         : Local ZFS, SOC                                
  Christoph Riplinger    : Optimizer, TS searches, QM/MM, DLPNO-CCSD(T), (RO)-DLPNO pert. Triples 
  Michael Roemelt        : Original ROCIS implementation, recursive CI coupling coefficients
  Masaaki Saitow         : Open-shell DLPNO-CCSD energy and density      
  Barbara Sandhoefer     : DKH picture change effects                    
  Yorick L. A. Schmerwitz: GMF and freeze-and-release deltaSCF, NEB S-IDPP initial path                    
  Kantharuban Sivalingam : CASSCF convergence/infrastructure, NEVPT2, NEVPT3, NEVPT4(SD), FIC-MRCI and CEPA variants
  Bernardo de Souza      : ESD, SOC TD-DFT                               
  Georgi L. Stoychev     : AutoAux, RI-MP2 NMR, DLPNO-MP2 response, X2C  
  Van Anh Tran           : RI-MP2 g-tensors                              
  Willem Van den Heuvel  : Paramagnetic NMR                              
  Zikuan Wang            : NOTCH, Electric field optimization            
  Frank Wennmohs         : Technical directorship and infrastructure     
  Hang Xu                : AUTO-CI-Response properties                   
                                                                         
[FACCTs GmbH]                                                            
  Markus Bursch, Nicolas Foglia, Miquel Garcia-Rates, Ingolf Harden, Hagen Neugebauer, Anastasios Papadopoulos, 
  Christoph Riplinger, Bernardo de Souza, Georgi L. Stoychev                                                    
                                                                 
  APM, various basis sets, CI-OPT, improved COSX, DLPNO-Multilevel,           
  DOCKER, DRACO, updates on ESD, Fragmentator, GOAT, IRC, LR-CPCM, L-BFGS, MBIS, meta-GGA TD-DFT gradient, ML-optimized integration grids, 
  MM, NACMEs, nearIR, NEB, NEB-TS, NL-DFT gradient (VV10), 2- and 3-layer-ONIOM, interface openCOSMO-RS, QMMM,   
  Crystal-QMMM, RESP, rigid body optimization, SF, symmetry and pop. for TD-DFT, various functionals, SOLVATOR                                   
                                                                         
[Other institutions]                                                     
  V. Asgeirsson          : NEB                                           
  Christoph Bannwarth    : sTDA-DFT, sTD-DFT, PBEh-3c, B97-3c, D3        
  Giovanni Bistoni       : ETS/NOCV, ADLD/ADEX, COVALED                  
  Martin Brehm           : Molecular dynamics                            
  Ronald Cardenas        : ETS/NOCV                                      
  Martina Colucci        : COVALED                                       
  Sebastian Ehlert       : rSCAN, r2SCAN, r2SCAN-3c, D4, dhf basis sets  
  Marvin Friede          : D4 for Fr, Ra, Ac-Lr                          
  Lars Goerigk           : TD-DFT with DH, B97 family of functionals     
  Stefan Grimme          : VdW corrections, initial TS optimization, DFT functionals, gCP, sTDA/sTD-DF 
  Waldemar Hujo          : DFT-NL                                        
  H. Jonsson             : NEB                                           
  Holger Kruse           : gCP                                           
  Marcel Mueller         : wB97X-3c, vDZP basis set                      
  Hagen Neugebauer       : wr2SCAN, Native XTB                           
  Gianluca Regni         : ADLD/ADEX                                     
  Tobias Risthaus        : pre 6.0 range-separated hybrid DFT and stability analysis
  Lukas Wittmann         : regularized MP2, r2SCAN double-hybrids, wr2SCAN        
                                                                         
We gratefully acknowledge several colleagues who have allowed us to      
interface, adapt or use parts of their codes:                            
  Ed Valeev, F. Pavosevic, A. Kumar             : LibInt (2-el integral package), F12 methods 
  Garnet Chan, S. Sharma, J. Yang, R. Olivares  : DMRG                   
  Ulf Ekstrom                                   : XCFun DFT Library      
  Mihaly Kallay                                 : mrcc  (arbitrary order and MRCC methods)
  Frank Weinhold                                : gennbo (NPA and NBO analysis)           
  Simon Mueller                                 : openCOSMO-RS                            
  Christopher J. Cramer and Donald G. Truhlar   : smd solvation model                     
  S Lehtola, MJT Oliveira, MAL Marques          : LibXC Library                           
  Liviu Ungur et al                             : ANISO software                          


 Your calculation uses the libint2 library for the computation of 2-el integrals
 For citations please refer to: http://libint.valeyev.net

 Your ORCA version has been built with support for libXC version: 7.0.0
 For citations please refer to: https://libxc.gitlab.io

 This ORCA versions uses:
   CBLAS   interface :  Fast vector & matrix operations
   LAPACKE interface :  Fast linear algebra routines
   SCALAPACK package :  Parallel linear algebra routines
   Shared memory     :  Shared parallel matrices
   BLAS/LAPACK       :  OpenBLAS 0.3.29  USE64BITINT DYNAMIC_ARCH NO_AFFINITY Zen SINGLE_THREADED
        Core in use  :  Zen
   Copyright (c) 2011-2014, The OpenBLAS Project


  ***********************************
  * Starting time: Fri Apr 17 12:14:57 2026
  * Host name:     vmi3233575
  * Process ID:    341067
  * Working dir.:  /root/orca_b12_vps_pack/jobs/01_xtb/mult_3
  ***********************************

NOTE: MaxCore=500 MB was set to SCF,MP2,MDCI,CIPSI,MRCI,RASCI and CIS
      => If you want to overwrite this, your respective input block should be placed after the MaxCore statement


***************************************
The coordinates will be read from file: ../../../starts/ring12_d1.90.xyz
***************************************


Your calculation utilizes the semiempirical GFN2-xTB method
Please cite in your paper:
Bannwarth, C.; Ehlert S.; Grimme, S. J. Chem. Theory Comput. 2019, 15, 1652.
   

================================================================================

================================================================================
                                        WARNINGS
                       Please study these warnings very carefully!
================================================================================


WARNING: Geometry Optimization
  ===> : Switching off AutoStart
         For restart on a previous wavefunction, please use MOREAD

WARNING: Found dipole moment calculation with XTB calculation
  ===> : Switching off dipole moment calculation

Environment variable XTBEXE for xtb has been set!

================================================================================
                                       INPUT FILE
================================================================================
NAME = ring12_d1.90_m3.inp
|  1> ! GFN2-xTB TightSCF TightOpt
|  2> 
|  3> %pal
|  4>   nprocs 1
|  5> end
|  6> 
|  7> %maxcore 500
|  8> 
|  9> * xyzfile 0 3 ../../../starts/ring12_d1.90.xyz
| 10> 
| 11>                          ****END OF INPUT****
================================================================================

                       *****************************
                       * Geometry Optimization Run *
                       *****************************

Geometry optimization settings:
Update method            Update   .... BFGS
Choice of coordinates    CoordSys .... (2022) Redundant Internals
Initial Hessian          InHess   .... Almloef's Model
Max. no of cycles        MaxIter  .... 50

Convergence Tolerances:
Energy Change            TolE     ....  1.0000e-06 Eh
Max. Gradient            TolMAXG  ....  1.0000e-04 Eh/bohr
RMS Gradient             TolRMSG  ....  3.0000e-05 Eh/bohr
Max. Displacement        TolMAXD  ....  1.0000e-03 bohr
RMS Displacement         TolRMSD  ....  6.0000e-04 bohr
Strict Convergence                .... False

------------------------------------------------------------------------------
                        ORCA OPTIMIZATION COORDINATE SETUP
------------------------------------------------------------------------------

The optimization will be done in redundant internal coordinates (2022)
Making redundant internal coordinates   ...  (2022 redundants) done
Evaluating the initial hessian          ...  (Almloef) done
Evaluating the coordinates              ...  done
Calculating the B-matrix                .... done
Calculating the G-matrix                .... done
The number of degrees of freedom        ....   36

    -----------------------------------------------------------------
                    Redundant Internal Coordinates


    -----------------------------------------------------------------
         Definition                    Initial Value    Approx d2E/dq
    -----------------------------------------------------------------
      1. B(B   1,B   0)                  1.9000         0.128736   
      2. B(B   2,B   1)                  1.9000         0.128736   
      3. B(B   3,B   2)                  1.9000         0.128736   
      4. B(B   4,B   3)                  1.9000         0.128736   
      5. B(B   5,B   4)                  1.9000         0.128736   
      6. B(B   6,B   5)                  1.9000         0.128736   
      7. B(B   7,B   6)                  1.9000         0.128736   
      8. B(B   8,B   7)                  1.9000         0.128736   
      9. B(B   9,B   8)                  1.9000         0.128736   
     10. B(B  10,B   9)                  1.9000         0.128736   
     11. B(B  11,B  10)                  1.9000         0.128736   
     12. B(B  11,B   0)                  1.9000         0.128736   
     13. A(B   1,B   0,B  11)          150.0000         0.265742   
     14. A(B   0,B   1,B   2)          150.0000         0.265742   
     15. A(B   1,B   2,B   3)          150.0000         0.265742   
     16. A(B   2,B   3,B   4)          150.0000         0.265742   
     17. A(B   3,B   4,B   5)          150.0000         0.265742   
     18. A(B   4,B   5,B   6)          150.0000         0.265742   
     19. A(B   5,B   6,B   7)          150.0000         0.265742   
     20. A(B   6,B   7,B   8)          150.0000         0.265742   
     21. A(B   7,B   8,B   9)          150.0000         0.265742   
     22. A(B   8,B   9,B  10)          150.0000         0.265742   
     23. A(B   9,B  10,B  11)          150.0000         0.265742   
     24. A(B   0,B  11,B  10)          150.0000         0.265742   
     25. D(B   2,B   1,B   0,B  11)      0.0000         0.010000   
     26. D(B   3,B   2,B   1,B   0)      0.0000         0.010000   
     27. D(B   4,B   3,B   2,B   1)      0.0000         0.010000   
     28. D(B   5,B   4,B   3,B   2)      0.0000         0.010000   
     29. D(B   6,B   5,B   4,B   3)      0.0000         0.010000   
     30. D(B   7,B   6,B   5,B   4)      0.0000         0.010000   
     31. D(B   8,B   7,B   6,B   5)      0.0000         0.010000   
     32. D(B   9,B   8,B   7,B   6)      0.0000         0.010000   
     33. D(B  10,B   9,B   8,B   7)      0.0000         0.010000   
     34. D(B  11,B  10,B   9,B   8)      0.0000         0.010000   
     35. D(B   0,B  11,B  10,B   9)      0.0000         0.010000   
     36. D(B  10,B  11,B   0,B   1)      0.0000         0.010000   
    -----------------------------------------------------------------

Number of atoms                         .... 12
Number of degrees of freedom            .... 36


         *************************************************************
         *                GEOMETRY OPTIMIZATION CYCLE   1            *
         *************************************************************
---------------------------------
CARTESIAN COORDINATES (ANGSTROEM)
---------------------------------
  B     3.670518   -0.000000    0.000000
  B     3.178762    1.835259    0.000000
  B     1.835259    3.178762    0.000000
  B     0.000000    3.670518    0.000000
  B    -1.835259    3.178762    0.000000
  B    -3.178762    1.835259    0.000000
  B    -3.670518    0.000000    0.000000
  B    -3.178762   -1.835259    0.000000
  B    -1.835259   -3.178762    0.000000
  B    -0.000000   -3.670518    0.000000
  B     1.835259   -3.178762    0.000000
  B     3.178762   -1.835259    0.000000

----------------------------
CARTESIAN COORDINATES (A.U.)
----------------------------
  NO LB    ZA    FRAG    MASS        X           Y           Z
   0 B   5.0000    0    10.810    6.936274   -0.000000    0.000000
   1 B   5.0000    0    10.810    6.006990    3.468137    0.000000
   2 B   5.0000    0    10.810    3.468137    6.006990    0.000000
   3 B   5.0000    0    10.810    0.000000    6.936274    0.000000
   4 B   5.0000    0    10.810   -3.468137    6.006990    0.000000
   5 B   5.0000    0    10.810   -6.006990    3.468137    0.000000
   6 B   5.0000    0    10.810   -6.936274    0.000000    0.000000
   7 B   5.0000    0    10.810   -6.006990   -3.468137    0.000000
   8 B   5.0000    0    10.810   -3.468137   -6.006990    0.000000
   9 B   5.0000    0    10.810   -0.000000   -6.936274    0.000000
  10 B   5.0000    0    10.810    3.468137   -6.006990    0.000000
  11 B   5.0000    0    10.810    6.006990   -3.468137    0.000000

      -----------------------------------------------------------      
     |                   =====================                   |     
     |                           x T B                           |     
     |                   =====================                   |     
     |                         S. Grimme                         |     
     |          Mulliken Center for Theoretical Chemistry        |     
     |                    University of Bonn                     |     
      -----------------------------------------------------------      

   * xtb version 6.6.1 (unknown) compiled by 'builduser@buildhost' on 2023-08-07

   xtb is free software: you can redistribute it and/or modify it under
   the terms of the GNU Lesser General Public License as published by
   the Free Software Foundation, either version 3 of the License, or
   (at your option) any later version.
   
   xtb is distributed in the hope that it will be useful,
   but WITHOUT ANY WARRANTY; without even the implied warranty of
   MERCHANTABILITY or FITNESS FOR A PARTICULAR PURPOSE.  See the
   GNU Lesser General Public License for more details.
   
   Cite this work as:
   * C. Bannwarth, E. Caldeweyher, S. Ehlert, A. Hansen, P. Pracht,
     J. Seibert, S. Spicher, S. Grimme, WIREs Comput. Mol. Sci., 2020, 11,
     e01493. DOI: 10.1002/wcms.1493
   
   for GFN2-xTB:
   * C. Bannwarth, S. Ehlert and S. Grimme., J. Chem. Theory Comput., 2019,
     15, 1652-1671. DOI: 10.1021/acs.jctc.8b01176
   for GFN1-xTB:
   * S. Grimme, C. Bannwarth, P. Shushkov, J. Chem. Theory Comput., 2017,
     13, 1989-2009. DOI: 10.1021/acs.jctc.7b00118
   for GFN0-xTB:
   * P. Pracht, E. Caldeweyher, S. Ehlert, S. Grimme, ChemRxiv, 2019, preprint.
     DOI: 10.26434/chemrxiv.8326202.v1
   for GFN-FF:
   * S. Spicher and S. Grimme, Angew. Chem. Int. Ed., 2020, 59, 15665-15673.
     DOI: 10.1002/anie.202004239
   
   for ALPB and GBSA implicit solvation:
   * S. Ehlert, M. Stahn, S. Spicher, S. Grimme, J. Chem. Theory Comput.,
     2021, 17, 4250-4261. DOI: 10.1021/acs.jctc.1c00471
   
   for DFT-D4:
   * E. Caldeweyher, C. Bannwarth and S. Grimme, J. Chem. Phys., 2017,
     147, 034112. DOI: 10.1063/1.4993215
   * E. Caldeweyher, S. Ehlert, A. Hansen, H. Neugebauer, S. Spicher,
     C. Bannwarth and S. Grimme, J. Chem. Phys., 2019, 150, 154122.
     DOI: 10.1063/1.5090222
   * E. Caldeweyher, J.-M. Mewes, S. Ehlert and S. Grimme, Phys. Chem. Chem. Phys.
     2020, 22, 8499-8512. DOI: 10.1039/D0CP00502A
   
   for sTDA-xTB:
   * S. Grimme and C. Bannwarth, J. Chem. Phys., 2016, 145, 054103.
     DOI: 10.1063/1.4959605
   
   in the mass-spec context:
   * V. Asgeirsson, C. Bauer and S. Grimme, Chem. Sci., 2017, 8, 4879.
     DOI: 10.1039/c7sc00601b
   * J. Koopman and S. Grimme, ACS Omega 2019, 4, 12, 15120-15133.
     DOI: 10.1021/acsomega.9b02011
   
   for metadynamics refer to:
   * S. Grimme, J. Chem. Theory Comput., 2019, 155, 2847-2862
     DOI: 10.1021/acs.jctc.9b00143
   
   for SPH calculations refer to:
   * S. Spicher and S. Grimme, J. Chem. Theory Comput., 2021, 17, 1701-1714
     DOI: 10.1021/acs.jctc.0c01306
   
   with help from (in alphabetical order)
   P. Atkinson, C. Bannwarth, F. Bohle, G. Brandenburg, E. Caldeweyher
   M. Checinski, S. Dohm, S. Ehlert, S. Ehrlich, I. Gerasimov, C. Hölzer
   A. Katbashev, J. Koopman, C. Lavigne, S. Lehtola, F. März, M. Müller,
   F. Musil, H. Neugebauer, J. Pisarek, C. Plett, P. Pracht, F. Pultar,
   J. Seibert, P. Shushkov, S. Spicher, M. Stahn, M. Steiner, T. Strunk,
   J. Stückrath, T. Rose, and J. Unsleber
   
 * started run on 2026/04/17 at 12:14:57.936     

           -------------------------------------------------
          |                Calculation Setup                |
           -------------------------------------------------

          program call               : /usr/bin/xtb ring12_d1.90_m3_XTB.xyz --grad -c 0 -u 2 -P 1 --namespace ring12_d1.90_m3 --input ring12_d1.90_m3_XTB.input.tmp --acc 0.200000
          calculation namespace      : ring12_d1.90_m3
          coordinate file            : ring12_d1.90_m3_XTB.xyz
          omp threads                :                     1

   ID    Z sym.   atoms
    1    5 B      1-12

           -------------------------------------------------
          |                 G F N 2 - x T B                 |
           -------------------------------------------------

        Reference                      10.1021/acs.jctc.8b01176
      * Hamiltonian:
        H0-scaling (s, p, d)           1.850000    2.230000    2.230000
        zeta-weighting                 0.500000
      * Dispersion:
        s8                             2.700000
        a1                             0.520000
        a2                             5.000000
        s9                             5.000000
      * Repulsion:
        kExp                           1.500000    1.000000
        rExp                           1.000000
      * Coulomb:
        alpha                          2.000000
        third order                    shell-resolved
        anisotropic                    true
        a3                             3.000000
        a5                             4.000000
        cn-shift                       1.200000
        cn-exp                         4.000000
        max-rad                        5.000000


          ...................................................
          :                      SETUP                      :
          :.................................................:
          :  # basis functions                  48          :
          :  # atomic orbitals                  48          :
          :  # shells                           24          :
          :  # electrons                        36          :
          :  max. iterations                   250          :
          :  Hamiltonian                  GFN2-xTB          :
          :  restarted?                      false          :
          :  GBSA solvation                  false          :
          :  PC potential                    false          :
          :  electronic temp.          300.0000000     K    :
          :  accuracy                    0.2000000          :
          :  -> integral cutoff          0.3198970E+02      :
          :  -> integral neglect         0.2000000E-08      :
          :  -> SCF convergence          0.2000000E-06 Eh   :
          :  -> wf. convergence          0.2000000E-04 e    :
          :  Broyden damping             0.4000000          :
          ...................................................

 iter      E             dE          RMSdq      gap      omega  full diag
   1    -13.6308195 -0.136308E+02  0.315E+01    0.00       0.0  T
   2    -13.6315562 -0.736693E-03  0.190E+01    0.00       1.0  T
   3    -13.6375159 -0.595971E-02  0.134E+00    0.00       1.0  T
   4    -13.6376321 -0.116281E-03  0.295E-01    0.00       1.0  T
   5    -13.6376379 -0.572479E-05  0.121E-01    0.00       1.0  T
   6    -13.6376357  0.219866E-05  0.206E-02    0.00       1.4  T
   7    -13.6376385 -0.284898E-05  0.149E-02    0.00       1.9  T
   8    -13.6376385 -0.261479E-07  0.159E-03    0.00      18.1  T
   9    -13.6376385 -0.209788E-08  0.153E-04    0.00     188.4  T
  10    -13.6376385  0.192572E-08  0.247E-04    0.00     116.7  T
  11    -13.6376385 -0.193328E-08  0.642E-05    0.00     449.4  T

   *** convergence criteria satisfied after 11 iterations ***

         #    Occupation            Energy/Eh            Energy/eV
      -------------------------------------------------------------
         1        2.0000           -0.3701850             -10.0732
       ...           ...                  ...                  ...
        13        2.0000           -0.2537799              -6.9057
        14        1.9998           -0.2511540              -6.8342
        15        1.9341           -0.2456642              -6.6849
        16        1.9341           -0.2456642              -6.6849
        17        1.5660           -0.2433981              -6.6232
        18        1.5660           -0.2433981              -6.6232
        19        0.4102           -0.2213318              -6.0227 (HOMO)
        20        0.4102           -0.2213318              -6.0227 (LUMO)
        21        0.0898           -0.2194762              -5.9723
        22        0.0898           -0.2194762              -5.9723
        23                         -0.1819157              -4.9502
        24                         -0.1819157              -4.9502
       ...                                ...                  ...
        48                          0.3289369               8.9508
      -------------------------------------------------------------
                  HL-Gap            0.0000000 Eh            0.0000 eV
             Fermi-level           -0.2324112 Eh           -6.3242 eV

 transition dipole moment (au) for excitation:          18          19
     X       Y       Z   
   0.0000   0.0000   0.0000  total (au/Debye):    0.000   0.000
 dE (eV)             :    0.600
 oscillator strength :  0.96630E-17

 SCC (total)                   0 d,  0 h,  0 min,  0.019 sec
 SCC setup                      ...        0 min,  0.000 sec (  0.723%)
 Dispersion                     ...        0 min,  0.000 sec (  0.371%)
 classical contributions        ...        0 min,  0.000 sec (  0.147%)
 integral evaluation            ...        0 min,  0.002 sec (  9.744%)
 iterations                     ...        0 min,  0.009 sec ( 49.719%)
 molecular gradient             ...        0 min,  0.005 sec ( 25.240%)
 printout                       ...        0 min,  0.003 sec ( 13.935%)

         :::::::::::::::::::::::::::::::::::::::::::::::::::::
         ::                     SUMMARY                     ::
         :::::::::::::::::::::::::::::::::::::::::::::::::::::
         :: total energy             -13.622431429057 Eh    ::
         :: gradient norm              0.173055132547 Eh/a0 ::
         :: HOMO-LUMO gap              0.000000044919 eV    ::
         ::.................................................::
         :: SCC energy               -13.637638542413 Eh    ::
         :: -> isotropic ES            0.090299908152 Eh    ::
         :: -> anisotropic ES          0.005614204983 Eh    ::
         :: -> anisotropic XC         -0.071793898614 Eh    ::
         :: -> dispersion             -0.009568109768 Eh    ::
         :: repulsion energy           0.015081739570 Eh    ::
         :: add. restraining           0.000000000000 Eh    ::
         :: total charge              -0.000000000249 e     ::
         :::::::::::::::::::::::::::::::::::::::::::::::::::::


Property printout bound to 'properties.out'

           -------------------------------------------------
          | TOTAL ENERGY              -13.622431429057 Eh   |
          | GRADIENT NORM               0.173055132547 Eh/α |
          | HOMO-LUMO GAP               0.000000044919 eV   |
           -------------------------------------------------

------------------------------------------------------------------------
 * finished run on 2026/04/17 at 12:14:57.967     
------------------------------------------------------------------------
 total:
 * wall-time:     0 d,  0 h,  0 min,  0.031 sec
 *  cpu-time:     0 d,  0 h,  0 min,  0.030 sec
 * ratio c/w:     0.980 speedup
 SCF:
 * wall-time:     0 d,  0 h,  0 min,  0.019 sec
 *  cpu-time:     0 d,  0 h,  0 min,  0.018 sec
 * ratio c/w:     0.978 speedup


-------------------------   --------------------
FINAL SINGLE POINT ENERGY       -13.622431429060
-------------------------   --------------------


-------------
DIPOLE MOMENT
-------------
                                X             Y             Z
Total Dipole Moment    :     -0.00000      -0.00000       0.00000
                        -----------------------------------------
Magnitude (a.u.)       :      0.00000
Magnitude (Debye)      :      0.00000


------------------
CARTESIAN GRADIENT
------------------

   1   B   :    0.049956742   -0.000000010   -0.000000000
   2   B   :    0.043263782    0.024978402   -0.000000000
   3   B   :    0.024978350    0.043263795    0.000000000
   4   B   :   -0.000000005    0.049956715   -0.000000000
   5   B   :   -0.024978357    0.043263784   -0.000000000
   6   B   :   -0.043263778    0.024978382   -0.000000000
   7   B   :   -0.049956722   -0.000000021    0.000000000
   8   B   :   -0.043263745   -0.024978400   -0.000000000
   9   B   :   -0.024978334   -0.043263762   -0.000000000
  10   B   :   -0.000000016   -0.049956684    0.000000000
  11   B   :    0.024978321   -0.043263787    0.000000000
  12   B   :    0.043263762   -0.024978414   -0.000000000

Difference to translation invariance:
           :    0.0000000000    0.0000000000    0.0000000000

Difference to rotation invariance:
           :   -0.0000000000    0.0000000000   -0.0000000000

Norm of the Cartesian gradient     ...    0.1730551325
RMS gradient                       ...    0.0288425221
MAX gradient                       ...    0.0499567422
------------------------------------------------------------------------------
                         ORCA GEOMETRY RELAXATION STEP
------------------------------------------------------------------------------

Reading the OPT-File                    .... done
Getting information on internals        .... done
Copying old internal coords+grads       .... done
Making the new internal coordinates     .... (2022 redundants) done
Validating the new internal coordinates .... (2022 redundants) done
Calculating the B-matrix                .... done
Calculating the G,G- and P matrices     .... done
Transforming gradient to internals      .... done
Projecting the internal gradient        .... done
Number of atoms                         ....  12
Number of internal coordinates          ....  36
Current Energy                          ....   -13.622431429 Eh
Current gradient norm                   ....     0.173055133 Eh/bohr
Maximum allowed component of the step   ....  0.300
Current trust radius                    ....  0.300
Evaluating the initial hessian          ....  (Almloef) done
Projecting the Hessian                  .... done
Forming the augmented Hessian           .... done
Diagonalizing the augmented Hessian     .... done
Last element of RFO vector              ....  0.771058984
Lowest eigenvalues of augmented Hessian:
 -0.276088916  0.010000000  0.010000000  0.010000000  0.010000000
Length of the computed step             ....  0.825830110
Warning: the length of the step is outside the trust region - taking restricted step instead
The input lambda is                     ....     0.009000
   iter:   5  x=   -0.644035  g=    1.251910 f(x)=     0.262480
   iter:  10  x=   -0.985653  g=    0.161524 f(x)=     0.000000
The output lambda is                    ....    -0.985653 (12 iterations)
The final length of the internal step   ....  0.300000000
Converting the step to Cartesian space:
 Initial RMS(Int)=    0.0500000000
Transforming coordinates:
 Iter   0:  RMS(Cart)=    0.0965925826 RMS(Int)=    0.0500000000
done
Storing new coordinates                 .... done

                                .--------------------.
          ----------------------|Geometry convergence|-------------------------
          Item                value                   Tolerance       Converged
          ---------------------------------------------------------------------
          RMS gradient        0.0557194740            0.0000300000      NO
          MAX gradient        0.0965090197            0.0001000000      NO
          RMS step            0.0500000000            0.0006000000      NO
          MAX step            0.0866025940            0.0010000000      NO
          -------------------------------------------------------------------------
          ........................................................
          Max(Bonds)      0.0458      Max(Angles)    0.00
          Max(Dihed)        0.00      Max(Improp)    0.00
          ---------------------------------------------------------------------

The optimization has not yet converged - more geometry cycles are needed


    ---------------------------------------------------------------------------
                         Redundant Internal Coordinates
                            (Angstroem and degrees)

        Definition                    Value    dE/dq     Step     New-Value
    ----------------------------------------------------------------------------
     1. B(B   1,B   0)                1.9000  0.096509 -0.0458    1.8542   
     2. B(B   2,B   1)                1.9000  0.096509 -0.0458    1.8542   
     3. B(B   3,B   2)                1.9000  0.096509 -0.0458    1.8542   
     4. B(B   4,B   3)                1.9000  0.096509 -0.0458    1.8542   
     5. B(B   5,B   4)                1.9000  0.096509 -0.0458    1.8542   
     6. B(B   6,B   5)                1.9000  0.096509 -0.0458    1.8542   
     7. B(B   7,B   6)                1.9000  0.096509 -0.0458    1.8542   
     8. B(B   8,B   7)                1.9000  0.096509 -0.0458    1.8542   
     9. B(B   9,B   8)                1.9000  0.096509 -0.0458    1.8542   
    10. B(B  10,B   9)                1.9000  0.096509 -0.0458    1.8542   
    11. B(B  11,B  10)                1.9000  0.096509 -0.0458    1.8542   
    12. B(B  11,B   0)                1.9000  0.096509 -0.0458    1.8542   
    13. A(B   1,B   0,B  11)          150.00 -0.000000    0.00    150.00   
    14. A(B   0,B   1,B   2)          150.00 -0.000000    0.00    150.00   
    15. A(B   1,B   2,B   3)          150.00 -0.000000    0.00    150.00   
    16. A(B   2,B   3,B   4)          150.00 -0.000000    0.00    150.00   
    17. A(B   3,B   4,B   5)          150.00 -0.000000    0.00    150.00   
    18. A(B   4,B   5,B   6)          150.00 -0.000000    0.00    150.00   
    19. A(B   5,B   6,B   7)          150.00  0.000000   -0.00    150.00   
    20. A(B   6,B   7,B   8)          150.00  0.000000   -0.00    150.00   
    21. A(B   7,B   8,B   9)          150.00  0.000000   -0.00    150.00   
    22. A(B   8,B   9,B  10)          150.00  0.000000   -0.00    150.00   
    23. A(B   9,B  10,B  11)          150.00  0.000000   -0.00    150.00   
    24. A(B   0,B  11,B  10)          150.00 -0.000000    0.00    150.00   
    25. D(B   2,B   1,B   0,B  11)      0.00 -0.000000    0.00      0.00   
    26. D(B   3,B   2,B   1,B   0)      0.00 -0.000000    0.00      0.00   
    27. D(B   4,B   3,B   2,B   1)      0.00  0.000000   -0.00     -0.00   
    28. D(B   5,B   4,B   3,B   2)      0.00  0.000000   -0.00     -0.00   
    29. D(B   6,B   5,B   4,B   3)      0.00  0.000000    0.00      0.00   
    30. D(B   7,B   6,B   5,B   4)      0.00 -0.000000    0.00      0.00   
    31. D(B   8,B   7,B   6,B   5)      0.00 -0.000000    0.00      0.00   
    32. D(B   9,B   8,B   7,B   6)      0.00 -0.000000    0.00      0.00   
    33. D(B  10,B   9,B   8,B   7)      0.00 -0.000000    0.00      0.00   
    34. D(B  11,B  10,B   9,B   8)      0.00  0.000000    0.00      0.00   
    35. D(B   0,B  11,B  10,B   9)      0.00  0.000000   -0.00     -0.00   
    36. D(B  10,B  11,B   0,B   1)      0.00  0.000000   -0.00     -0.00   
    ----------------------------------------------------------------------------

Geometry step timings:
Preparation and reading OPT file:      0.000 s ( 3.143 %)
Internal coordinates            :      0.000 s ( 1.571 %)
B/P matrices and projection     :      0.000 s (20.365 %)
Hessian update/contruction      :      0.000 s (12.948 %)
Making the step                 :      0.000 s (23.256 %)
Converting the step to Cartesian:      0.000 s ( 4.148 %)
Storing new data                :      0.000 s ( 3.457 %)
Checking convergence            :      0.000 s ( 3.583 %)
Final printing                  :      0.000 s (27.530 %)
Total time                      :      0.002 s

Time for energy+gradient        :      0.042 s
Time for complete geometry iter :      0.045 s

         *************************************************************
         *                GEOMETRY OPTIMIZATION CYCLE   2            *
         *************************************************************
---------------------------------
CARTESIAN COORDINATES (ANGSTROEM)
---------------------------------
  B     3.581985    0.000000    0.000000
  B     3.102090    1.790993    0.000000
  B     1.790993    3.102090   -0.000000
  B     0.000000    3.581985   -0.000000
  B    -1.790993    3.102090    0.000000
  B    -3.102090    1.790993    0.000000
  B    -3.581985    0.000000    0.000000
  B    -3.102090   -1.790993    0.000000
  B    -1.790993   -3.102090   -0.000000
  B     0.000000   -3.581985   -0.000000
  B     1.790993   -3.102090   -0.000000
  B     3.102090   -1.790993    0.000000

----------------------------
CARTESIAN COORDINATES (A.U.)
----------------------------
  NO LB    ZA    FRAG    MASS        X           Y           Z
   0 B   5.0000    0    10.810    6.768971    0.000000    0.000000
   1 B   5.0000    0    10.810    5.862101    3.384485    0.000000
   2 B   5.0000    0    10.810    3.384485    5.862101   -0.000000
   3 B   5.0000    0    10.810    0.000000    6.768971   -0.000000
   4 B   5.0000    0    10.810   -3.384485    5.862101    0.000000
   5 B   5.0000    0    10.810   -5.862101    3.384485    0.000000
   6 B   5.0000    0    10.810   -6.768971    0.000000    0.000000
   7 B   5.0000    0    10.810   -5.862101   -3.384485    0.000000
   8 B   5.0000    0    10.810   -3.384485   -5.862101   -0.000000
   9 B   5.0000    0    10.810    0.000000   -6.768971   -0.000000
  10 B   5.0000    0    10.810    3.384485   -5.862101   -0.000000
  11 B   5.0000    0    10.810    5.862101   -3.384485    0.000000

      -----------------------------------------------------------      
     |                   =====================                   |     
     |                           x T B                           |     
     |                   =====================                   |     
     |                         S. Grimme                         |     
     |          Mulliken Center for Theoretical Chemistry        |     
     |                    University of Bonn                     |     
      -----------------------------------------------------------      

   * xtb version 6.6.1 (unknown) compiled by 'builduser@buildhost' on 2023-08-07

   xtb is free software: you can redistribute it and/or modify it under
   the terms of the GNU Lesser General Public License as published by
   the Free Software Foundation, either version 3 of the License, or
   (at your option) any later version.
   
   xtb is distributed in the hope that it will be useful,
   but WITHOUT ANY WARRANTY; without even the implied warranty of
   MERCHANTABILITY or FITNESS FOR A PARTICULAR PURPOSE.  See the
   GNU Lesser General Public License for more details.
   
   Cite this work as:
   * C. Bannwarth, E. Caldeweyher, S. Ehlert, A. Hansen, P. Pracht,
     J. Seibert, S. Spicher, S. Grimme, WIREs Comput. Mol. Sci., 2020, 11,
     e01493. DOI: 10.1002/wcms.1493
   
   for GFN2-xTB:
   * C. Bannwarth, S. Ehlert and S. Grimme., J. Chem. Theory Comput., 2019,
     15, 1652-1671. DOI: 10.1021/acs.jctc.8b01176
   for GFN1-xTB:
   * S. Grimme, C. Bannwarth, P. Shushkov, J. Chem. Theory Comput., 2017,
     13, 1989-2009. DOI: 10.1021/acs.jctc.7b00118
   for GFN0-xTB:
   * P. Pracht, E. Caldeweyher, S. Ehlert, S. Grimme, ChemRxiv, 2019, preprint.
     DOI: 10.26434/chemrxiv.8326202.v1
   for GFN-FF:
   * S. Spicher and S. Grimme, Angew. Chem. Int. Ed., 2020, 59, 15665-15673.
     DOI: 10.1002/anie.202004239
   
   for ALPB and GBSA implicit solvation:
   * S. Ehlert, M. Stahn, S. Spicher, S. Grimme, J. Chem. Theory Comput.,
     2021, 17, 4250-4261. DOI: 10.1021/acs.jctc.1c00471
   
   for DFT-D4:
   * E. Caldeweyher, C. Bannwarth and S. Grimme, J. Chem. Phys., 2017,
     147, 034112. DOI: 10.1063/1.4993215
   * E. Caldeweyher, S. Ehlert, A. Hansen, H. Neugebauer, S. Spicher,
     C. Bannwarth and S. Grimme, J. Chem. Phys., 2019, 150, 154122.
     DOI: 10.1063/1.5090222
   * E. Caldeweyher, J.-M. Mewes, S. Ehlert and S. Grimme, Phys. Chem. Chem. Phys.
     2020, 22, 8499-8512. DOI: 10.1039/D0CP00502A
   
   for sTDA-xTB:
   * S. Grimme and C. Bannwarth, J. Chem. Phys., 2016, 145, 054103.
     DOI: 10.1063/1.4959605
   
   in the mass-spec context:
   * V. Asgeirsson, C. Bauer and S. Grimme, Chem. Sci., 2017, 8, 4879.
     DOI: 10.1039/c7sc00601b
   * J. Koopman and S. Grimme, ACS Omega 2019, 4, 12, 15120-15133.
     DOI: 10.1021/acsomega.9b02011
   
   for metadynamics refer to:
   * S. Grimme, J. Chem. Theory Comput., 2019, 155, 2847-2862
     DOI: 10.1021/acs.jctc.9b00143
   
   for SPH calculations refer to:
   * S. Spicher and S. Grimme, J. Chem. Theory Comput., 2021, 17, 1701-1714
     DOI: 10.1021/acs.jctc.0c01306
   
   with help from (in alphabetical order)
   P. Atkinson, C. Bannwarth, F. Bohle, G. Brandenburg, E. Caldeweyher
   M. Checinski, S. Dohm, S. Ehlert, S. Ehrlich, I. Gerasimov, C. Hölzer
   A. Katbashev, J. Koopman, C. Lavigne, S. Lehtola, F. März, M. Müller,
   F. Musil, H. Neugebauer, J. Pisarek, C. Plett, P. Pracht, F. Pultar,
   J. Seibert, P. Shushkov, S. Spicher, M. Stahn, M. Steiner, T. Strunk,
   J. Stückrath, T. Rose, and J. Unsleber
   
 * started run on 2026/04/17 at 12:14:57.981     

           -------------------------------------------------
          |                Calculation Setup                |
           -------------------------------------------------

          program call               : /usr/bin/xtb ring12_d1.90_m3_XTB.xyz --grad -c 0 -u 2 -P 1 --namespace ring12_d1.90_m3 --input ring12_d1.90_m3_XTB.input.tmp --acc 0.200000
          calculation namespace      : ring12_d1.90_m3
          coordinate file            : ring12_d1.90_m3_XTB.xyz
          omp threads                :                     1

   ID    Z sym.   atoms
    1    5 B      1-12

           -------------------------------------------------
          |                 G F N 2 - x T B                 |
           -------------------------------------------------

        Reference                      10.1021/acs.jctc.8b01176
      * Hamiltonian:
        H0-scaling (s, p, d)           1.850000    2.230000    2.230000
        zeta-weighting                 0.500000
      * Dispersion:
        s8                             2.700000
        a1                             0.520000
        a2                             5.000000
        s9                             5.000000
      * Repulsion:
        kExp                           1.500000    1.000000
        rExp                           1.000000
      * Coulomb:
        alpha                          2.000000
        third order                    shell-resolved
        anisotropic                    true
        a3                             3.000000
        a5                             4.000000
        cn-shift                       1.200000
        cn-exp                         4.000000
        max-rad                        5.000000

q/qsh data taken from xtbrestart
CAMM data taken from xtbrestart

          ...................................................
          :                      SETUP                      :
          :.................................................:
          :  # basis functions                  48          :
          :  # atomic orbitals                  48          :
          :  # shells                           24          :
          :  # electrons                        36          :
          :  max. iterations                   250          :
          :  Hamiltonian                  GFN2-xTB          :
          :  restarted?                       true          :
          :  GBSA solvation                  false          :
          :  PC potential                    false          :
          :  electronic temp.          300.0000000     K    :
          :  accuracy                    0.2000000          :
          :  -> integral cutoff          0.3198970E+02      :
          :  -> integral neglect         0.2000000E-08      :
          :  -> SCF convergence          0.2000000E-06 Eh   :
          :  -> wf. convergence          0.2000000E-04 e    :
          :  Broyden damping             0.4000000          :
          ...................................................

 iter      E             dE          RMSdq      gap      omega  full diag
   1    -13.7438028 -0.137438E+02  0.610E-01    0.00       0.0  T
   2    -13.7438102 -0.732640E-05  0.388E-01    0.00       1.0  T
   3    -13.7437822  0.279980E-04  0.370E-02    0.00       1.0  T
   4    -13.7408277  0.295452E-02  0.261E-01    0.00       1.0  T
   5    -13.7437594 -0.293173E-02  0.416E-02    0.00       1.0  T
   6    -13.7438053 -0.459288E-04  0.168E-02    0.00       1.7  T
   7    -13.7438073 -0.200547E-05  0.135E-02    0.00       2.1  T
   8    -13.7438097 -0.237448E-05  0.996E-03    0.00       2.9  T
   9    -13.7438063  0.338741E-05  0.159E-02    0.00       1.8  T
  10    -13.7438099 -0.357320E-05  0.104E-02    0.00       2.8  T
  11    -13.7438136 -0.374030E-05  0.347E-04    0.00      83.2  T
  12    -13.7438136  0.774149E-08  0.785E-04    0.00      36.8  T
  13    -13.7438136 -0.960180E-08  0.103E-04    0.00     280.1  T
  14    -13.7438136 -0.427871E-10  0.945E-05    0.00     305.5  T

   *** convergence criteria satisfied after 14 iterations ***

         #    Occupation            Energy/Eh            Energy/eV
      -------------------------------------------------------------
         1        2.0000           -0.3731438             -10.1538
       ...           ...                  ...                  ...
        13        2.0000           -0.2572746              -7.0008
        14        1.9999           -0.2541972              -6.9171
        15        1.9538           -0.2486988              -6.7674
        16        1.9538           -0.2486987              -6.7674
        17        1.5463           -0.2459982              -6.6940
        18        1.5462           -0.2459981              -6.6939
        19        0.4390           -0.2228413              -6.0638 (HOMO)
        20        0.4390           -0.2228412              -6.0638 (LUMO)
        21        0.0610           -0.2204774              -5.9995
        22        0.0610           -0.2204774              -5.9995
        23                         -0.1804959              -4.9115
        24                         -0.1804957              -4.9115
       ...                                ...                  ...
        48                          0.3881361              10.5617
      -------------------------------------------------------------
                  HL-Gap            0.0000000 Eh            0.0000 eV
             Fermi-level           -0.2344481 Eh           -6.3797 eV

 transition dipole moment (au) for excitation:          18          19
     X       Y       Z   
   0.0000   0.0000   0.0000  total (au/Debye):    0.000   0.000
 dE (eV)             :    0.630
 oscillator strength :  0.25793E-16

 SCC (total)                   0 d,  0 h,  0 min,  0.026 sec
 SCC setup                      ...        0 min,  0.000 sec (  0.630%)
 Dispersion                     ...        0 min,  0.000 sec (  0.408%)
 classical contributions        ...        0 min,  0.000 sec (  0.120%)
 integral evaluation            ...        0 min,  0.002 sec (  9.185%)
 iterations                     ...        0 min,  0.015 sec ( 57.475%)
 molecular gradient             ...        0 min,  0.005 sec ( 19.483%)
 printout                       ...        0 min,  0.003 sec ( 12.574%)

         :::::::::::::::::::::::::::::::::::::::::::::::::::::
         ::                     SUMMARY                     ::
         :::::::::::::::::::::::::::::::::::::::::::::::::::::
         :: total energy             -13.722060790899 Eh    ::
         :: gradient norm              0.170225907381 Eh/a0 ::
         :: HOMO-LUMO gap              0.000000473896 eV    ::
         ::.................................................::
         :: SCC energy               -13.743813631226 Eh    ::
         :: -> isotropic ES            0.091462269570 Eh    ::
         :: -> anisotropic ES          0.005563322580 Eh    ::
         :: -> anisotropic XC         -0.069058452684 Eh    ::
         :: -> dispersion             -0.009429531754 Eh    ::
         :: repulsion energy           0.021628812202 Eh    ::
         :: add. restraining           0.000000000000 Eh    ::
         :: total charge              -0.000000000002 e     ::
         :::::::::::::::::::::::::::::::::::::::::::::::::::::


Property printout bound to 'properties.out'

           -------------------------------------------------
          | TOTAL ENERGY              -13.722060790899 Eh   |
          | GRADIENT NORM               0.170225907381 Eh/α |
          | HOMO-LUMO GAP               0.000000473896 eV   |
           -------------------------------------------------

------------------------------------------------------------------------
 * finished run on 2026/04/17 at 12:14:58.019     
------------------------------------------------------------------------
 total:
 * wall-time:     0 d,  0 h,  0 min,  0.038 sec
 *  cpu-time:     0 d,  0 h,  0 min,  0.038 sec
 * ratio c/w:     0.998 speedup
 SCF:
 * wall-time:     0 d,  0 h,  0 min,  0.026 sec
 *  cpu-time:     0 d,  0 h,  0 min,  0.026 sec
 * ratio c/w:     1.000 speedup


-------------------------   --------------------
FINAL SINGLE POINT ENERGY       -13.722060790900
-------------------------   --------------------


-------------
DIPOLE MOMENT
-------------
                                X             Y             Z
Total Dipole Moment    :      0.00000      -0.00000       0.00000
                        -----------------------------------------
Magnitude (a.u.)       :      0.00000
Magnitude (Debye)      :      0.00000


------------------
CARTESIAN GRADIENT
------------------

   1   B   :    0.049140008   -0.000000011    0.000000000
   2   B   :    0.042556629    0.024569858    0.000000000
   3   B   :    0.024569809    0.042556643   -0.000000000
   4   B   :   -0.000000145    0.049139944   -0.000000000
   5   B   :   -0.024570074    0.042556253    0.000000000
   6   B   :   -0.042556311    0.024569935    0.000000000
   7   B   :   -0.049139933    0.000000459    0.000000000
   8   B   :   -0.042556566   -0.024570001    0.000000000
   9   B   :   -0.024570273   -0.042556517   -0.000000000
  10   B   :    0.000000321   -0.049140092   -0.000000000
  11   B   :    0.024570221   -0.042556338   -0.000000000
  12   B   :    0.042556315   -0.024570133    0.000000000

Difference to translation invariance:
           :   -0.0000000000    0.0000000000    0.0000000000

Difference to rotation invariance:
           :   -0.0000000000   -0.0000000000   -0.0000000000

Norm of the Cartesian gradient     ...    0.1702259074
RMS gradient                       ...    0.0283709846
MAX gradient                       ...    0.0491400923
------------------------------------------------------------------------------
                         ORCA GEOMETRY RELAXATION STEP
------------------------------------------------------------------------------

Reading the OPT-File                    .... done
Getting information on internals        .... done
Copying old internal coords+grads       .... done
Making the new internal coordinates     .... (2022 redundants) done
Validating the new internal coordinates .... (2022 redundants) done
Calculating the B-matrix                .... done
Calculating the G,G- and P matrices     .... done
Transforming gradient to internals      .... done
Projecting the internal gradient        .... done
Number of atoms                         ....  12
Number of internal coordinates          ....  36
Current Energy                          ....   -13.722060791 Eh
Current gradient norm                   ....     0.170225907 Eh/bohr
Maximum allowed component of the step   ....  0.300
Current trust radius                    ....  0.300
Updating the Hessian (BFGS)             .... done
Forming the augmented Hessian           .... done
Diagonalizing the augmented Hessian     .... done
Last element of RFO vector              ....  0.716829851
Lowest eigenvalues of augmented Hessian:
 -0.319867939  0.010000000  0.010000000  0.010000000  0.010000000
Length of the computed step             ....  0.972682900
Warning: the length of the step is outside the trust region - taking restricted step instead
The input lambda is                     ....     0.009000
   iter:   5  x=   -0.051712  g= 2130.659977 f(x)=    49.606109
   iter:  10  x=   -0.481895  g=    5.277261 f(x)=     0.819743
   iter:  15  x=   -1.077940  g=    0.165544 f(x)=     0.000487
The output lambda is                    ....    -1.077952 (18 iterations)
The final length of the internal step   ....  0.300000000
Converting the step to Cartesian space:
 Initial RMS(Int)=    0.0500000000
Transforming coordinates:
 Iter   0:  RMS(Cart)=    0.0965925826 RMS(Int)=    0.0500000000
done
Storing new coordinates                 .... done
The predicted energy change is          ....    -0.097835514
Previously predicted energy change      ....    -0.094501920
Actually observed energy change         ....    -0.099629362
Ratio of predicted to observed change   ....     1.054257540
New trust radius                        ....     0.450000000

                                .--------------------.
          ----------------------|Geometry convergence|-------------------------
          Item                value                   Tolerance       Converged
          ---------------------------------------------------------------------
          Energy change      -0.0996293618            0.0000010000      NO
          RMS gradient        0.0548085334            0.0000300000      NO
          MAX gradient        0.0949315738            0.0001000000      NO
          RMS step            0.0500000000            0.0006000000      NO
          MAX step            0.0866032634            0.0010000000      NO
          -------------------------------------------------------------------------
          ........................................................
          Max(Bonds)      0.0458      Max(Angles)    0.00
          Max(Dihed)        0.00      Max(Improp)    0.00
          ---------------------------------------------------------------------

The optimization has not yet converged - more geometry cycles are needed


    ---------------------------------------------------------------------------
                         Redundant Internal Coordinates
                            (Angstroem and degrees)

        Definition                    Value    dE/dq     Step     New-Value
    ----------------------------------------------------------------------------
     1. B(B   1,B   0)                1.8542  0.094931 -0.0458    1.8083   
     2. B(B   2,B   1)                1.8542  0.094931 -0.0458    1.8083   
     3. B(B   3,B   2)                1.8542  0.094931 -0.0458    1.8083   
     4. B(B   4,B   3)                1.8542  0.094931 -0.0458    1.8083   
     5. B(B   5,B   4)                1.8542  0.094931 -0.0458    1.8083   
     6. B(B   6,B   5)                1.8542  0.094931 -0.0458    1.8083   
     7. B(B   7,B   6)                1.8542  0.094931 -0.0458    1.8083   
     8. B(B   8,B   7)                1.8542  0.094931 -0.0458    1.8083   
     9. B(B   9,B   8)                1.8542  0.094932 -0.0458    1.8083   
    10. B(B  10,B   9)                1.8542  0.094931 -0.0458    1.8083   
    11. B(B  11,B  10)                1.8542  0.094931 -0.0458    1.8083   
    12. B(B  11,B   0)                1.8542  0.094931 -0.0458    1.8083   
    13. A(B   1,B   0,B  11)          150.00 -0.000000    0.00    150.00   
    14. A(B   0,B   1,B   2)          150.00 -0.000000    0.00    150.00   
    15. A(B   1,B   2,B   3)          150.00  0.000000   -0.00    150.00   
    16. A(B   2,B   3,B   4)          150.00  0.000000   -0.00    150.00   
    17. A(B   3,B   4,B   5)          150.00  0.000000   -0.00    150.00   
    18. A(B   4,B   5,B   6)          150.00  0.000000   -0.00    150.00   
    19. A(B   5,B   6,B   7)          150.00  0.000000   -0.00    150.00   
    20. A(B   6,B   7,B   8)          150.00 -0.000000    0.00    150.00   
    21. A(B   7,B   8,B   9)          150.00 -0.000000    0.00    150.00   
    22. A(B   8,B   9,B  10)          150.00 -0.000000    0.00    150.00   
    23. A(B   9,B  10,B  11)          150.00 -0.000000    0.00    150.00   
    24. A(B   0,B  11,B  10)          150.00  0.000000   -0.00    150.00   
    25. D(B   2,B   1,B   0,B  11)      0.00  0.000000   -0.00      0.00   
    26. D(B   3,B   2,B   1,B   0)      0.00  0.000000   -0.00      0.00   
    27. D(B   4,B   3,B   2,B   1)     -0.00  0.000000   -0.00     -0.00   
    28. D(B   5,B   4,B   3,B   2)     -0.00 -0.000000    0.00     -0.00   
    29. D(B   6,B   5,B   4,B   3)      0.00 -0.000000    0.00      0.00   
    30. D(B   7,B   6,B   5,B   4)      0.00 -0.000000   -0.00      0.00   
    31. D(B   8,B   7,B   6,B   5)      0.00  0.000000   -0.00     -0.00   
    32. D(B   9,B   8,B   7,B   6)      0.00  0.000000   -0.00     -0.00   
    33. D(B  10,B   9,B   8,B   7)      0.00  0.000000   -0.00      0.00   
    34. D(B  11,B  10,B   9,B   8)      0.00 -0.000000    0.00      0.00   
    35. D(B   0,B  11,B  10,B   9)     -0.00 -0.000000    0.00     -0.00   
    36. D(B  10,B  11,B   0,B   1)     -0.00 -0.000000    0.00     -0.00   
    ----------------------------------------------------------------------------

Geometry step timings:
Preparation and reading OPT file:      0.000 s ( 1.851 %)
Internal coordinates            :      0.000 s ( 2.192 %)
B/P matrices and projection     :      0.000 s (21.237 %)
Hessian update/contruction      :      0.000 s (21.286 %)
Making the step                 :      0.001 s (26.449 %)
Converting the step to Cartesian:      0.000 s ( 2.094 %)
Storing new data                :      0.000 s ( 2.582 %)
Checking convergence            :      0.000 s ( 2.776 %)
Final printing                  :      0.000 s (19.435 %)
Total time                      :      0.002 s

Time for energy+gradient        :      0.048 s
Time for complete geometry iter :      0.051 s

         *************************************************************
         *                GEOMETRY OPTIMIZATION CYCLE   3            *
         *************************************************************
---------------------------------
CARTESIAN COORDINATES (ANGSTROEM)
---------------------------------
  B     3.493452    0.000000    0.000000
  B     3.025418    1.746726    0.000000
  B     1.746726    3.025418   -0.000000
  B     0.000000    3.493452   -0.000000
  B    -1.746726    3.025418    0.000000
  B    -3.025418    1.746726    0.000000
  B    -3.493452   -0.000000    0.000000
  B    -3.025418   -1.746726   -0.000000
  B    -1.746726   -3.025418   -0.000000
  B    -0.000000   -3.493452   -0.000000
  B     1.746726   -3.025418   -0.000000
  B     3.025418   -1.746726    0.000000

----------------------------
CARTESIAN COORDINATES (A.U.)
----------------------------
  NO LB    ZA    FRAG    MASS        X           Y           Z
   0 B   5.0000    0    10.810    6.601667    0.000000    0.000000
   1 B   5.0000    0    10.810    5.717212    3.300834    0.000000
   2 B   5.0000    0    10.810    3.300834    5.717212   -0.000000
   3 B   5.0000    0    10.810    0.000000    6.601668   -0.000000
   4 B   5.0000    0    10.810   -3.300834    5.717212    0.000000
   5 B   5.0000    0    10.810   -5.717212    3.300834    0.000000
   6 B   5.0000    0    10.810   -6.601668   -0.000001    0.000000
   7 B   5.0000    0    10.810   -5.717212   -3.300834   -0.000000
   8 B   5.0000    0    10.810   -3.300834   -5.717212   -0.000000
   9 B   5.0000    0    10.810   -0.000000   -6.601667   -0.000000
  10 B   5.0000    0    10.810    3.300833   -5.717212   -0.000000
  11 B   5.0000    0    10.810    5.717212   -3.300834    0.000000

      -----------------------------------------------------------      
     |                   =====================                   |     
     |                           x T B                           |     
     |                   =====================                   |     
     |                         S. Grimme                         |     
     |          Mulliken Center for Theoretical Chemistry        |     
     |                    University of Bonn                     |     
      -----------------------------------------------------------      

   * xtb version 6.6.1 (unknown) compiled by 'builduser@buildhost' on 2023-08-07

   xtb is free software: you can redistribute it and/or modify it under
   the terms of the GNU Lesser General Public License as published by
   the Free Software Foundation, either version 3 of the License, or
   (at your option) any later version.
   
   xtb is distributed in the hope that it will be useful,
   but WITHOUT ANY WARRANTY; without even the implied warranty of
   MERCHANTABILITY or FITNESS FOR A PARTICULAR PURPOSE.  See the
   GNU Lesser General Public License for more details.
   
   Cite this work as:
   * C. Bannwarth, E. Caldeweyher, S. Ehlert, A. Hansen, P. Pracht,
     J. Seibert, S. Spicher, S. Grimme, WIREs Comput. Mol. Sci., 2020, 11,
     e01493. DOI: 10.1002/wcms.1493
   
   for GFN2-xTB:
   * C. Bannwarth, S. Ehlert and S. Grimme., J. Chem. Theory Comput., 2019,
     15, 1652-1671. DOI: 10.1021/acs.jctc.8b01176
   for GFN1-xTB:
   * S. Grimme, C. Bannwarth, P. Shushkov, J. Chem. Theory Comput., 2017,
     13, 1989-2009. DOI: 10.1021/acs.jctc.7b00118
   for GFN0-xTB:
   * P. Pracht, E. Caldeweyher, S. Ehlert, S. Grimme, ChemRxiv, 2019, preprint.
     DOI: 10.26434/chemrxiv.8326202.v1
   for GFN-FF:
   * S. Spicher and S. Grimme, Angew. Chem. Int. Ed., 2020, 59, 15665-15673.
     DOI: 10.1002/anie.202004239
   
   for ALPB and GBSA implicit solvation:
   * S. Ehlert, M. Stahn, S. Spicher, S. Grimme, J. Chem. Theory Comput.,
     2021, 17, 4250-4261. DOI: 10.1021/acs.jctc.1c00471
   
   for DFT-D4:
   * E. Caldeweyher, C. Bannwarth and S. Grimme, J. Chem. Phys., 2017,
     147, 034112. DOI: 10.1063/1.4993215
   * E. Caldeweyher, S. Ehlert, A. Hansen, H. Neugebauer, S. Spicher,
     C. Bannwarth and S. Grimme, J. Chem. Phys., 2019, 150, 154122.
     DOI: 10.1063/1.5090222
   * E. Caldeweyher, J.-M. Mewes, S. Ehlert and S. Grimme, Phys. Chem. Chem. Phys.
     2020, 22, 8499-8512. DOI: 10.1039/D0CP00502A
   
   for sTDA-xTB:
   * S. Grimme and C. Bannwarth, J. Chem. Phys., 2016, 145, 054103.
     DOI: 10.1063/1.4959605
   
   in the mass-spec context:
   * V. Asgeirsson, C. Bauer and S. Grimme, Chem. Sci., 2017, 8, 4879.
     DOI: 10.1039/c7sc00601b
   * J. Koopman and S. Grimme, ACS Omega 2019, 4, 12, 15120-15133.
     DOI: 10.1021/acsomega.9b02011
   
   for metadynamics refer to:
   * S. Grimme, J. Chem. Theory Comput., 2019, 155, 2847-2862
     DOI: 10.1021/acs.jctc.9b00143
   
   for SPH calculations refer to:
   * S. Spicher and S. Grimme, J. Chem. Theory Comput., 2021, 17, 1701-1714
     DOI: 10.1021/acs.jctc.0c01306
   
   with help from (in alphabetical order)
   P. Atkinson, C. Bannwarth, F. Bohle, G. Brandenburg, E. Caldeweyher
   M. Checinski, S. Dohm, S. Ehlert, S. Ehrlich, I. Gerasimov, C. Hölzer
   A. Katbashev, J. Koopman, C. Lavigne, S. Lehtola, F. März, M. Müller,
   F. Musil, H. Neugebauer, J. Pisarek, C. Plett, P. Pracht, F. Pultar,
   J. Seibert, P. Shushkov, S. Spicher, M. Stahn, M. Steiner, T. Strunk,
   J. Stückrath, T. Rose, and J. Unsleber
   
 * started run on 2026/04/17 at 12:14:58.032     

           -------------------------------------------------
          |                Calculation Setup                |
           -------------------------------------------------

          program call               : /usr/bin/xtb ring12_d1.90_m3_XTB.xyz --grad -c 0 -u 2 -P 1 --namespace ring12_d1.90_m3 --input ring12_d1.90_m3_XTB.input.tmp --acc 0.200000
          calculation namespace      : ring12_d1.90_m3
          coordinate file            : ring12_d1.90_m3_XTB.xyz
          omp threads                :                     1

   ID    Z sym.   atoms
    1    5 B      1-12

           -------------------------------------------------
          |                 G F N 2 - x T B                 |
           -------------------------------------------------

        Reference                      10.1021/acs.jctc.8b01176
      * Hamiltonian:
        H0-scaling (s, p, d)           1.850000    2.230000    2.230000
        zeta-weighting                 0.500000
      * Dispersion:
        s8                             2.700000
        a1                             0.520000
        a2                             5.000000
        s9                             5.000000
      * Repulsion:
        kExp                           1.500000    1.000000
        rExp                           1.000000
      * Coulomb:
        alpha                          2.000000
        third order                    shell-resolved
        anisotropic                    true
        a3                             3.000000
        a5                             4.000000
        cn-shift                       1.200000
        cn-exp                         4.000000
        max-rad                        5.000000

q/qsh data taken from xtbrestart
CAMM data taken from xtbrestart

          ...................................................
          :                      SETUP                      :
          :.................................................:
          :  # basis functions                  48          :
          :  # atomic orbitals                  48          :
          :  # shells                           24          :
          :  # electrons                        36          :
          :  max. iterations                   250          :
          :  Hamiltonian                  GFN2-xTB          :
          :  restarted?                       true          :
          :  GBSA solvation                  false          :
          :  PC potential                    false          :
          :  electronic temp.          300.0000000     K    :
          :  accuracy                    0.2000000          :
          :  -> integral cutoff          0.3198970E+02      :
          :  -> integral neglect         0.2000000E-08      :
          :  -> SCF convergence          0.2000000E-06 Eh   :
          :  -> wf. convergence          0.2000000E-04 e    :
          :  Broyden damping             0.4000000          :
          ...................................................

 iter      E             dE          RMSdq      gap      omega  full diag
   1    -13.8501968 -0.138502E+02  0.667E-01    0.00       0.0  T
   2    -13.8502040 -0.725833E-05  0.419E-01    0.00       1.0  T
   3    -13.8502062 -0.214239E-05  0.230E-02    0.00       1.3  T
   4    -13.8496083  0.597854E-03  0.148E-01    0.00       1.0  T
   5    -13.8502065 -0.598176E-03  0.599E-03    0.00       4.8  T
   6    -13.8501771  0.293960E-04  0.261E-02    0.00       1.1  T
   7    -13.8502053 -0.281832E-04  0.777E-03    0.00       3.7  T
   8    -13.8502072 -0.194778E-05  0.266E-03    0.00      10.9  T
   9    -13.8502068  0.420742E-06  0.468E-03    0.00       6.2  T
  10    -13.8502068  0.467097E-07  0.480E-03    0.00       6.0  T
  11    -13.8502074 -0.602908E-06  0.567E-04    0.00      50.9  T
  12    -13.8502074  0.278852E-08  0.519E-04    0.00      55.6  T
  13    -13.8502074  0.185008E-07  0.793E-04    0.00      36.4  T
  14    -13.8502074 -0.274476E-07  0.742E-05    0.00     388.9  T
  15    -13.8502074 -0.109347E-09  0.276E-05    0.00    1045.4  T

   *** convergence criteria satisfied after 15 iterations ***

         #    Occupation            Energy/Eh            Energy/eV
      -------------------------------------------------------------
         1        2.0000           -0.3761443             -10.2354
       ...           ...                  ...                  ...
        13        2.0000           -0.2609775              -7.1016
        14        1.9999           -0.2574617              -7.0059
        15        1.9682           -0.2519269              -6.8553
        16        1.9682           -0.2519269              -6.8553
        17        1.5318           -0.2488023              -6.7703
        18        1.5318           -0.2488023              -6.7703
        19        0.4607           -0.2244770              -6.1083 (HOMO)
        20        0.4607           -0.2244770              -6.1083 (LUMO)
        21        0.0393           -0.2215908              -6.0298
        22        0.0393           -0.2215908              -6.0298
        23                         -0.1790087              -4.8711
        24                         -0.1790087              -4.8711
       ...                                ...                  ...
        48                          0.4556954              12.4001
      -------------------------------------------------------------
                  HL-Gap            0.0000000 Eh            0.0000 eV
             Fermi-level           -0.2366540 Eh           -6.4397 eV

 transition dipole moment (au) for excitation:          18          19
     X       Y       Z   
  -0.0000   0.0000  -0.0000  total (au/Debye):    0.000   0.000
 dE (eV)             :    0.662
 oscillator strength :  0.26674E-20

 SCC (total)                   0 d,  0 h,  0 min,  0.027 sec
 SCC setup                      ...        0 min,  0.000 sec (  0.540%)
 Dispersion                     ...        0 min,  0.000 sec (  0.416%)
 classical contributions        ...        0 min,  0.000 sec (  0.144%)
 integral evaluation            ...        0 min,  0.002 sec (  9.137%)
 iterations                     ...        0 min,  0.016 sec ( 58.747%)
 molecular gradient             ...        0 min,  0.005 sec ( 18.877%)
 printout                       ...        0 min,  0.003 sec ( 12.039%)

         :::::::::::::::::::::::::::::::::::::::::::::::::::::
         ::                     SUMMARY                     ::
         :::::::::::::::::::::::::::::::::::::::::::::::::::::
         :: total energy             -13.819169178968 Eh    ::
         :: gradient norm              0.164405973982 Eh/a0 ::
         :: HOMO-LUMO gap              0.000000067734 eV    ::
         ::.................................................::
         :: SCC energy               -13.850207389354 Eh    ::
         :: -> isotropic ES            0.092431142517 Eh    ::
         :: -> anisotropic ES          0.005433115230 Eh    ::
         :: -> anisotropic XC         -0.065931525836 Eh    ::
         :: -> dispersion             -0.009651253159 Eh    ::
         :: repulsion energy           0.030909093418 Eh    ::
         :: add. restraining           0.000000000000 Eh    ::
         :: total charge              -0.000000000000 e     ::
         :::::::::::::::::::::::::::::::::::::::::::::::::::::


Property printout bound to 'properties.out'

           -------------------------------------------------
          | TOTAL ENERGY              -13.819169178968 Eh   |
          | GRADIENT NORM               0.164405973982 Eh/α |
          | HOMO-LUMO GAP               0.000000067734 eV   |
           -------------------------------------------------

------------------------------------------------------------------------
 * finished run on 2026/04/17 at 12:14:58.072     
------------------------------------------------------------------------
 total:
 * wall-time:     0 d,  0 h,  0 min,  0.040 sec
 *  cpu-time:     0 d,  0 h,  0 min,  0.040 sec
 * ratio c/w:     0.999 speedup
 SCF:
 * wall-time:     0 d,  0 h,  0 min,  0.027 sec
 *  cpu-time:     0 d,  0 h,  0 min,  0.027 sec
 * ratio c/w:     1.000 speedup


-------------------------   --------------------
FINAL SINGLE POINT ENERGY       -13.819169178970
-------------------------   --------------------


-------------
DIPOLE MOMENT
-------------
                                X             Y             Z
Total Dipole Moment    :     -0.00000       0.00000       0.00000
                        -----------------------------------------
Magnitude (a.u.)       :      0.00000
Magnitude (Debye)      :      0.00000


------------------
CARTESIAN GRADIENT
------------------

   1   B   :    0.047459898   -0.000000018    0.000000000
   2   B   :    0.041101447    0.023729993    0.000000000
   3   B   :    0.023730021    0.041101438   -0.000000000
   4   B   :    0.000000042    0.047459931   -0.000000000
   5   B   :   -0.023729964    0.041101536    0.000000000
   6   B   :   -0.041101530    0.023729959    0.000000000
   7   B   :   -0.047459918   -0.000000103   -0.000000000
   8   B   :   -0.041101493   -0.023729924    0.000000000
   9   B   :   -0.023729938   -0.041101480    0.000000000
  10   B   :   -0.000000050   -0.047459922   -0.000000000
  11   B   :    0.023729961   -0.041101494   -0.000000000
  12   B   :    0.041101523   -0.023729916   -0.000000000

Difference to translation invariance:
           :    0.0000000000   -0.0000000000    0.0000000000

Difference to rotation invariance:
           :    0.0000000000    0.0000000000   -0.0000000007

Norm of the Cartesian gradient     ...    0.1644059740
RMS gradient                       ...    0.0274009957
MAX gradient                       ...    0.0474599310
------------------------------------------------------------------------------
                         ORCA GEOMETRY RELAXATION STEP
------------------------------------------------------------------------------

Reading the OPT-File                    .... done
Getting information on internals        .... done
Copying old internal coords+grads       .... done
Making the new internal coordinates     .... (2022 redundants) done
Validating the new internal coordinates .... (2022 redundants) done
Calculating the B-matrix                .... done
Calculating the G,G- and P matrices     .... done
Transforming gradient to internals      .... done
Projecting the internal gradient        .... done
Number of atoms                         ....  12
Number of internal coordinates          ....  36
Current Energy                          ....   -13.819169179 Eh
Current gradient norm                   ....     0.164405974 Eh/bohr
Maximum allowed component of the step   ....  0.300
Current trust radius                    ....  0.450
Updating the Hessian (BFGS)             .... done
Forming the augmented Hessian           .... done
Diagonalizing the augmented Hessian     .... done
Last element of RFO vector              ....  0.727632185
Lowest eigenvalues of augmented Hessian:
 -0.299421515  0.010000000  0.010000000  0.010000000  0.010000000
Length of the computed step             ....  0.942739351
Warning: the length of the step is outside the trust region - taking restricted step instead
[...]
    23. A(B   9,B  10,B  11)          150.00 -0.000000    0.00    150.00   
    24. A(B   0,B  11,B  10)          150.00  0.000000    0.00    150.00   
    25. D(B   2,B   1,B   0,B  11)     -0.00 -0.000000    0.00      0.00   
    26. D(B   3,B   2,B   1,B   0)     -0.00 -0.000000    0.00      0.00   
    27. D(B   4,B   3,B   2,B   1)     -0.00 -0.000000    0.00      0.00   
    28. D(B   5,B   4,B   3,B   2)      0.00  0.000000   -0.00     -0.00   
    29. D(B   6,B   5,B   4,B   3)      0.00  0.000000   -0.00     -0.00   
    30. D(B   7,B   6,B   5,B   4)      0.00  0.000000   -0.00     -0.00   
    31. D(B   8,B   7,B   6,B   5)     -0.00 -0.000000    0.00      0.00   
    32. D(B   9,B   8,B   7,B   6)     -0.00 -0.000000    0.00      0.00   
    33. D(B  10,B   9,B   8,B   7)     -0.00 -0.000000    0.00      0.00   
    34. D(B  11,B  10,B   9,B   8)      0.00  0.000000   -0.00     -0.00   
    35. D(B   0,B  11,B  10,B   9)      0.00  0.000000   -0.00     -0.00   
    36. D(B  10,B  11,B   0,B   1)      0.00  0.000000   -0.00     -0.00   
    ----------------------------------------------------------------------------

Geometry step timings:
Preparation and reading OPT file:      0.000 s ( 2.504 %)
Internal coordinates            :      0.000 s ( 1.339 %)
B/P matrices and projection     :      0.000 s (18.437 %)
Hessian update/contruction      :      0.000 s (17.962 %)
Making the step                 :      0.000 s ( 9.801 %)
Converting the step to Cartesian:      0.000 s ( 1.641 %)
Storing new data                :      0.000 s ( 1.943 %)
Checking convergence            :      0.000 s ( 2.936 %)
Final printing                  :      0.001 s (43.394 %)
Total time                      :      0.002 s
                 *******************************************************
                 *** FINAL ENERGY EVALUATION AT THE STATIONARY POINT ***
                 ***               (AFTER    9 CYCLES)               ***
                 *******************************************************
---------------------------------
CARTESIAN COORDINATES (ANGSTROEM)
---------------------------------
  B     2.927703    0.000001    0.000000
  B     2.535465    1.463853    0.000000
  B     1.463852    2.535466   -0.000000
  B     0.000003    2.927704   -0.000000
  B    -1.463851    2.535466   -0.000000
  B    -2.535465    1.463851    0.000000
  B    -2.927703   -0.000000    0.000000
  B    -2.535465   -1.463853    0.000000
  B    -1.463851   -2.535467   -0.000000
  B    -0.000002   -2.927704   -0.000000
  B     1.463850   -2.535466   -0.000000
  B     2.535465   -1.463850    0.000000

----------------------------
CARTESIAN COORDINATES (A.U.)
----------------------------
  NO LB    ZA    FRAG    MASS        X           Y           Z
   0 B   5.0000    0    10.810    5.532556    0.000002    0.000000
   1 B   5.0000    0    10.810    4.791335    2.766281    0.000000
   2 B   5.0000    0    10.810    2.766279    4.791337   -0.000000
   3 B   5.0000    0    10.810    0.000005    5.532559   -0.000000
   4 B   5.0000    0    10.810   -2.766277    4.791336   -0.000000
   5 B   5.0000    0    10.810   -4.791335    2.766277    0.000000
   6 B   5.0000    0    10.810   -5.532557   -0.000000    0.000000
   7 B   5.0000    0    10.810   -4.791334   -2.766282    0.000000
   8 B   5.0000    0    10.810   -2.766278   -4.791339   -0.000000
   9 B   5.0000    0    10.810   -0.000005   -5.532560   -0.000000
  10 B   5.0000    0    10.810    2.766275   -4.791337   -0.000000
  11 B   5.0000    0    10.810    4.791335   -2.766275    0.000000

      -----------------------------------------------------------      
     |                   =====================                   |     
     |                           x T B                           |     
     |                   =====================                   |     
     |                         S. Grimme                         |     
     |          Mulliken Center for Theoretical Chemistry        |     
     |                    University of Bonn                     |     
      -----------------------------------------------------------      

   * xtb version 6.6.1 (unknown) compiled by 'builduser@buildhost' on 2023-08-07

   xtb is free software: you can redistribute it and/or modify it under
   the terms of the GNU Lesser General Public License as published by
   the Free Software Foundation, either version 3 of the License, or
   (at your option) any later version.
   
   xtb is distributed in the hope that it will be useful,
   but WITHOUT ANY WARRANTY; without even the implied warranty of
   MERCHANTABILITY or FITNESS FOR A PARTICULAR PURPOSE.  See the
   GNU Lesser General Public License for more details.
   
   Cite this work as:
   * C. Bannwarth, E. Caldeweyher, S. Ehlert, A. Hansen, P. Pracht,
     J. Seibert, S. Spicher, S. Grimme, WIREs Comput. Mol. Sci., 2020, 11,
     e01493. DOI: 10.1002/wcms.1493
   
   for GFN2-xTB:
   * C. Bannwarth, S. Ehlert and S. Grimme., J. Chem. Theory Comput., 2019,
     15, 1652-1671. DOI: 10.1021/acs.jctc.8b01176
   for GFN1-xTB:
   * S. Grimme, C. Bannwarth, P. Shushkov, J. Chem. Theory Comput., 2017,
     13, 1989-2009. DOI: 10.1021/acs.jctc.7b00118
   for GFN0-xTB:
   * P. Pracht, E. Caldeweyher, S. Ehlert, S. Grimme, ChemRxiv, 2019, preprint.
     DOI: 10.26434/chemrxiv.8326202.v1
   for GFN-FF:
   * S. Spicher and S. Grimme, Angew. Chem. Int. Ed., 2020, 59, 15665-15673.
     DOI: 10.1002/anie.202004239
   
   for ALPB and GBSA implicit solvation:
   * S. Ehlert, M. Stahn, S. Spicher, S. Grimme, J. Chem. Theory Comput.,
     2021, 17, 4250-4261. DOI: 10.1021/acs.jctc.1c00471
   
   for DFT-D4:
   * E. Caldeweyher, C. Bannwarth and S. Grimme, J. Chem. Phys., 2017,
     147, 034112. DOI: 10.1063/1.4993215
   * E. Caldeweyher, S. Ehlert, A. Hansen, H. Neugebauer, S. Spicher,
     C. Bannwarth and S. Grimme, J. Chem. Phys., 2019, 150, 154122.
     DOI: 10.1063/1.5090222
   * E. Caldeweyher, J.-M. Mewes, S. Ehlert and S. Grimme, Phys. Chem. Chem. Phys.
     2020, 22, 8499-8512. DOI: 10.1039/D0CP00502A
   
   for sTDA-xTB:
   * S. Grimme and C. Bannwarth, J. Chem. Phys., 2016, 145, 054103.
     DOI: 10.1063/1.4959605
   
   in the mass-spec context:
   * V. Asgeirsson, C. Bauer and S. Grimme, Chem. Sci., 2017, 8, 4879.
     DOI: 10.1039/c7sc00601b
   * J. Koopman and S. Grimme, ACS Omega 2019, 4, 12, 15120-15133.
     DOI: 10.1021/acsomega.9b02011
   
   for metadynamics refer to:
   * S. Grimme, J. Chem. Theory Comput., 2019, 155, 2847-2862
     DOI: 10.1021/acs.jctc.9b00143
   
   for SPH calculations refer to:
   * S. Spicher and S. Grimme, J. Chem. Theory Comput., 2021, 17, 1701-1714
     DOI: 10.1021/acs.jctc.0c01306
   
   with help from (in alphabetical order)
   P. Atkinson, C. Bannwarth, F. Bohle, G. Brandenburg, E. Caldeweyher
   M. Checinski, S. Dohm, S. Ehlert, S. Ehrlich, I. Gerasimov, C. Hölzer
   A. Katbashev, J. Koopman, C. Lavigne, S. Lehtola, F. März, M. Müller,
   F. Musil, H. Neugebauer, J. Pisarek, C. Plett, P. Pracht, F. Pultar,
   J. Seibert, P. Shushkov, S. Spicher, M. Stahn, M. Steiner, T. Strunk,
   J. Stückrath, T. Rose, and J. Unsleber
   
 * started run on 2026/04/17 at 12:14:58.392     

           -------------------------------------------------
          |                Calculation Setup                |
           -------------------------------------------------

          program call               : /usr/bin/xtb ring12_d1.90_m3_XTB.xyz --grad -c 0 -u 2 -P 1 --namespace ring12_d1.90_m3 --input ring12_d1.90_m3_XTB.input.tmp --acc 0.200000
          calculation namespace      : ring12_d1.90_m3
          coordinate file            : ring12_d1.90_m3_XTB.xyz
          omp threads                :                     1

   ID    Z sym.   atoms
    1    5 B      1-12

           -------------------------------------------------
          |                 G F N 2 - x T B                 |
           -------------------------------------------------

        Reference                      10.1021/acs.jctc.8b01176
      * Hamiltonian:
        H0-scaling (s, p, d)           1.850000    2.230000    2.230000
        zeta-weighting                 0.500000
      * Dispersion:
        s8                             2.700000
        a1                             0.520000
        a2                             5.000000
        s9                             5.000000
      * Repulsion:
        kExp                           1.500000    1.000000
        rExp                           1.000000
      * Coulomb:
        alpha                          2.000000
        third order                    shell-resolved
        anisotropic                    true
        a3                             3.000000
        a5                             4.000000
        cn-shift                       1.200000
        cn-exp                         4.000000
        max-rad                        5.000000

q/qsh data taken from xtbrestart
CAMM data taken from xtbrestart

          ...................................................
          :                      SETUP                      :
          :.................................................:
          :  # basis functions                  48          :
          :  # atomic orbitals                  48          :
          :  # shells                           24          :
          :  # electrons                        36          :
          :  max. iterations                   250          :
          :  Hamiltonian                  GFN2-xTB          :
          :  restarted?                       true          :
          :  GBSA solvation                  false          :
          :  PC potential                    false          :
          :  electronic temp.          300.0000000     K    :
          :  accuracy                    0.2000000          :
          :  -> integral cutoff          0.3198970E+02      :
          :  -> integral neglect         0.2000000E-08      :
          :  -> SCF convergence          0.2000000E-06 Eh   :
          :  -> wf. convergence          0.2000000E-04 e    :
          :  Broyden damping             0.4000000          :
          ...................................................

 iter      E             dE          RMSdq      gap      omega  full diag
   1    -14.4981454 -0.144981E+02  0.187E-04    0.00       0.0  T
   2    -14.4981454  0.664877E-08  0.610E-04    0.00      47.3  T
   3    -14.4981454 -0.304598E-08  0.443E-04    0.00      65.1  T
   4    -14.4981454 -0.336841E-08  0.213E-04    0.00     135.5  T
   5    -14.4981454 -0.566658E-12  0.979E-05    0.00     294.7  T
   6    -14.4981454 -0.824709E-10  0.799E-05    0.00     361.2  T

   *** convergence criteria satisfied after 6 iterations ***

         #    Occupation            Energy/Eh            Energy/eV
      -------------------------------------------------------------
         1        2.0000           -0.3949819             -10.7480
       ...           ...                  ...                  ...
        13        2.0000           -0.2851409              -7.7591
        14        2.0000           -0.2819194              -7.6714
        15        1.9978           -0.2755691              -7.4986
        16        1.9978           -0.2755690              -7.4986
        17        1.5022           -0.2697478              -7.3402
        18        1.5022           -0.2697478              -7.3402
        19        0.4995           -0.2360681              -6.4237 (HOMO)
        20        0.4995           -0.2360680              -6.4237 (LUMO)
        21        0.0005           -0.2288159              -6.2264
        22        0.0005           -0.2288159              -6.2264
        23                         -0.1648249              -4.4851
        24                         -0.1648249              -4.4851
       ...                                ...                  ...
        48                          1.2258180              33.3562
      -------------------------------------------------------------
                  HL-Gap            0.0000001 Eh            0.0000 eV
             Fermi-level           -0.2529048 Eh           -6.8819 eV

 transition dipole moment (au) for excitation:          18          19
     X       Y       Z   
   0.0000  -0.0000  -0.0000  total (au/Debye):    0.000   0.000
 dE (eV)             :    0.916
 oscillator strength :  0.15095E-13

 SCC (total)                   0 d,  0 h,  0 min,  0.019 sec
 SCC setup                      ...        0 min,  0.000 sec (  0.758%)
 Dispersion                     ...        0 min,  0.000 sec (  0.492%)
 classical contributions        ...        0 min,  0.000 sec (  0.178%)
 integral evaluation            ...        0 min,  0.003 sec ( 16.790%)
 iterations                     ...        0 min,  0.007 sec ( 33.727%)
 molecular gradient             ...        0 min,  0.005 sec ( 26.532%)
 printout                       ...        0 min,  0.004 sec ( 21.377%)

         :::::::::::::::::::::::::::::::::::::::::::::::::::::
         ::                     SUMMARY                     ::
         :::::::::::::::::::::::::::::::::::::::::::::::::::::
         :: total energy             -14.219856532498 Eh    ::
         :: gradient norm              0.000005118831 Eh/a0 ::
         :: HOMO-LUMO gap              0.000002326758 eV    ::
         ::.................................................::
         :: SCC energy               -14.498145386009 Eh    ::
         :: -> isotropic ES            0.094094888472 Eh    ::
         :: -> anisotropic ES          0.002867922062 Eh    ::
         :: -> anisotropic XC         -0.039732256470 Eh    ::
         :: -> dispersion             -0.012504453549 Eh    ::
         :: repulsion energy           0.278150393961 Eh    ::
         :: add. restraining           0.000000000000 Eh    ::
         :: total charge               0.000000000000 e     ::
         :::::::::::::::::::::::::::::::::::::::::::::::::::::


Property printout bound to 'properties.out'

           -------------------------------------------------
          | TOTAL ENERGY              -14.219856532498 Eh   |
          | GRADIENT NORM               0.000005118831 Eh/α |
          | HOMO-LUMO GAP               0.000002326758 eV   |
           -------------------------------------------------

------------------------------------------------------------------------
 * finished run on 2026/04/17 at 12:14:58.425     
------------------------------------------------------------------------
 total:
 * wall-time:     0 d,  0 h,  0 min,  0.032 sec
 *  cpu-time:     0 d,  0 h,  0 min,  0.032 sec
 * ratio c/w:     0.998 speedup
 SCF:
 * wall-time:     0 d,  0 h,  0 min,  0.019 sec
 *  cpu-time:     0 d,  0 h,  0 min,  0.019 sec
 * ratio c/w:     0.999 speedup


-------------------------   --------------------
FINAL SINGLE POINT ENERGY       -14.219856532500
-------------------------   --------------------


-------------
DIPOLE MOMENT
-------------
                                X             Y             Z
Total Dipole Moment    :     -0.00000      -0.00000       0.00000
                        -----------------------------------------
Magnitude (a.u.)       :      0.00000
Magnitude (Debye)      :      0.00000

                                *** OPTIMIZATION RUN DONE ***


--------------------------------
SUGGESTED CITATIONS FOR THIS RUN
--------------------------------

Below you find a list of papers that are relevant to this ORCA run
We neither can nor want to force you to cite these papers, but we appreciate if you do
You receive ORCA, which is the product of decades of hard work by many enthusiastic individuals, for free
The only thing we kindly ask in return is that you cite our papers,
We deeply appreciate it, if you show your appreciation for ORCA by not just citing the generic ORCA reference.

Please note that relegating all ORCA citations to the supporting information does *not* help us.
SI sections are not indexed - citations you put there will not count into any citation statistics
But we need these citations in order to attract the funding resources that allow us to do what we are doing

Therefore, if you are a happy ORCA user, please consider citing a few of the papers listed below in the main body of your paper

In addition to the list printed below, the program has created the file ring12_d1.90_m3.bibtex that contains the list in bibtex format
You can import this file easily into all common literature databanks and citation aid programs

It goes without saying that in many instances, there are alternative algorithms to achieve similar
results as the ones you have gotten from ORCA. It is, of course, also the case that in some instances
ORCA just re-implements algorithms worked out by others. We are fully aware of that and we are also
fully appreciative of our colleagues work. Hence this citation list should not be read as indicating
that the listed papers, which are focused on our own work, are the only ones worth citing. It simply
meant to make it easier for users to cite ORCA specific papers. It is not a substitute for doing your
own literature research and citing the relevant literature in a scientifically appropriate manner.

List of essential papers. We consider these as the minimum necessary citations

  1. Bannwarth, C.; Ehlert, S.; Grimme, S.
     GFN2-xTB—An Accurate and Broadly Parametrized Self-Consistent Tight-Binding Quantum Chemical Method with Multipole Electrostatics and Density-Dependent Dispersion Contributions
     J. Chem. Theory Comput. 2019 15(3), 1652-1671
     doi.org/10.1021/acs.jctc.8b01176
  2. Neese, F.
     Software update: the ORCA program system, version 6.0
     WIRES Comput. Molec. Sci. 2025 15(1), e70019
     doi.org/10.1002/wcms.70019

List of papers to cite with high priority. The work reported in these papers was absolutely
necessary for this run to complete.
Our perspective: the developers of density functionals and basis sets usually get cited in chemistry papers
Good! But without the algorithms to do something with them, the functionals or basis sets would not do anything.
Hence, in our opinion, the algorithm design and method developments papers are equally worthy of getting cited

  1. Bannwarth, C.; Caldeweyher, E.; Ehlert, S.; Hansen, A.; Pracht, P.; Seibert, J.; Spicher, S.; Grimme, S.
     Extended tight-binding quantum chemistry methods
     WIRES Comput. Molec. Sci. 2020 11(2), e1493
     doi.org/10.1002/wcms.1493

List of suggested additional citations. These are papers that are important in the 'surrounding' of 
of this run, or papers that preceded the highly important papers. If you like your results we are grateful for a citation.

  1. Neese, F.
     The ORCA program system
     WIRES Comput. Molec. Sci. 2012 2(1), 73-78
     doi.org/10.1002/wcms.81
  2. Neese, F.
     Software update: the ORCA program system, version 4.0
     WIRES Comput. Molec. Sci. 2018 8(1), 1-6
     doi.org/10.1002/wcms.1327
  3. Neese, F.; Wennmohs, F.; Becker, U.; Riplinger, C.
     The ORCA quantum chemistry program package
     J. Chem. Phys. 2020 152(22), 224108
     doi.org/10.1063/5.0004608
  4. Neese, F.
     Software update: The ORCA program system—Version 5.0
     WIRES Comput. Molec. Sci. 2022 12(1), e1606
     doi.org/10.1002/wcms.1606

List of optional additional citations

  1. Neese, F.
     Approximate second-order SCF convergence for spin unrestricted wavefunctions
     Chem. Phys. Lett. 2000 325(1-3), 93-98
     doi.org/10.1016/s0009-2614(00)00662-x

Timings for individual modules:

Sum of individual times          ...        0.479 sec (=   0.008 min)
Geometry relaxation              ...        0.029 sec (=   0.000 min)   6.1 %
XTB module                       ...        0.450 sec (=   0.007 min)  93.9 %
                             ****ORCA TERMINATED NORMALLY****
TOTAL RUN TIME: 0 days 0 hours 0 minutes 0 seconds 644 msec
