
                                 *****************
                                 * O   R   C   A *
                                 *****************

                                            #,                                       
                                            ###                                      
                                            ####                                     
                                            #####                                    
                                            ######                                   
                                           ########,                                 
                                     ,,################,,,,,                         
                               ,,#################################,,                 
                          ,,##########################################,,             
                       ,#########################################, ''#####,          
                    ,#############################################,,   '####,        
                  ,##################################################,,,,####,       
                ,###########''''           ''''###############################       
              ,#####''   ,,,,##########,,,,          '''####'''          '####       
            ,##' ,,,,###########################,,,                        '##       
           ' ,,###''''                  '''############,,,                           
         ,,##''                                '''############,,,,        ,,,,,,###''
      ,#''                                            '''#######################'''  
     '                                                          ''''####''''         
             ,#######,   #######,   ,#######,      ##                                
            ,#'     '#,  ##    ##  ,#'     '#,    #''#        ,####,    ,#,          
            ##       ##  ##   ,#'  ##            #'  '#       #'       ,# #          
            ##       ##  #######   ##           ,######,      #####,      #          
            '#,     ,#'  ##    ##  '#,     ,#' ,#      #,     #,   #      #          
             '#######'   ##     ##  '#######'  #'      '#     '####' #    #          



                #########################################################
                #                        -***-                          #
                #          Department of theory and spectroscopy        #
                #                                                       #
                #                      Frank Neese                      #
                #                                                       #
                #     Directorship, Architecture, Infrastructure        #
                #                    SHARK, DRIVERS                     #
                #        Core code/Algorithms in most modules           #
                #                                                       #
                #        Max Planck Institute fuer Kohlenforschung      #
                #                Kaiser Wilhelm Platz 1                 #
                #                 D-45470 Muelheim/Ruhr                 #
                #                      Germany                          #
                #                                                       #
                #                  All rights reserved                  #
                #                        -***-                          #
                #########################################################


                         Program Version 6.1.1  -  RELEASE   -
                                (GIT: $487d211c$)
                          ($2025-11-21 10:33:24 +0100$)
                                                                         
                                  - NO-DMRG VERSION -                    
                                                                         


 With contributions from (in alphabetic order):
[Max-Planck-Institut fuer Kohlenforschung]                               
  Daniel Aravena         : Magnetic Suceptibility                        
  Michael Atanasov       : Ab Initio Ligand Field Theory (pilot matlab implementation)
  Alexander A. Auer      : GIAO ZORA, VPT2 properties, NMR spectrum      
  Ute Becker             : All parallelization in ORCA, NUMFREQ, NUMCALC 
  Giovanni Bistoni       : ED, misc. LED, open-shell LED, HFLD           
  Dmytro Bykov           : pre 5.0 version of the SCF Hessian            
  Marcos Casanova-Páez   : Triplet and SCS-CIS(D). UHF-(DLPNO)-IP/EA/STEOM-CCSD. UHF-CVS-IP/STEOM-CCSD   
  Vijay G. Chilkuri      : MRCI spin determinant printing, contributions to CSF-ICE 
  Pauline Colinet        : FMM embedding                                 
  Dipayan Datta          : RHF DLPNO-CCSD density                        
  Achintya Kumar Dutta   : EOM-CC, STEOM-CC                              
  Nicolas Foglia         : Exact transition moments, OPA infrastructure, MCD improvements    
  Dmitry Ganyushin       : Spin-Orbit,Spin-Spin,Magnetic field MRCI      
  Miquel Garcia-Rates    : C-PCM and meta-GGA Hessian, CCSD/C-PCM, Gaussian charge scheme 
  Tiago L. C. Gouveia    : GS-ROHF, GS-ROCIS                             
  Yang Guo               : DLPNO-NEVPT2, F12-NEVPT2, CIM, IAO-localization        
  Andreas Hansen         : Spin unrestricted coupled pair/coupled cluster methods 
  Ingolf Harden          : AUTO-CI MPn and infrastructure                
  Benjamin Helmich-Paris : MC-RPA, TRAH-(SCF,CASSCF), AVAS, COSX integrals, SCF dyn. polar., MC-PDFT, srDFT 
  Lee Huntington         : MR-EOM, pCC                                   
  Robert Izsak           : Overlap fitted RIJCOSX, COSX-SCS-MP3, EOM     
  Riya Kayal             : Wick's Theorem for AUTO-CI, AUTO-CI UHF-CCSDT 
  Emily Kempfer          : AUTO-CI RHF CISDT and CCSDT, approximate NEVPT4
  Christian Kollmar      : KDIIS, OOCD, Brueckner-CCSD(T), CCSD density, CASPT2, CASPT2-K, improved NEVPT2 
  Axel Koslowski         : Symmetry handling                             
  Simone Kossmann        : meta-GGA functionals, TD-DFT gradient, OOMP2, (MP2 Hessian; deprecated post 5.0) 
  Lucas Lang             : DCDCAS, Hyperfine gauge corrections, ICE-SOC+SSC
  Marvin Lechner         : AUTO-CI (C++ implementation), FIC-MRCC        
  Spencer Leger          : CASSCF response                               
  Dagmar Lenk            : GEPOL surface, SMD, ORCA-2-JSON               
  Dimitrios Liakos       : Extrapolation schemes; Compound Job, Property file
  Dimitrios Manganas     : Further ROCIS development; embedding schemes. LFT, Crystal Embedding 
  Dimitrios Pantazis     : SARC Basis sets                               
  Anastasios Papadopoulos: AUTO-CI, single reference methods and gradients 
  Taras Petrenko         : pre 6.0 DFT Hessian and TD-DFT gradient,  ECA, NRVS 
  Petra Pikulova         : Analytic Raman intensities                    
  Peter Pinski           : DLPNO-MP2, DLPNO-MP2 Gradient                 
  Shashank Vittal Rao    : ES-AILFT, MagRelax                            
  Christoph Reimann      : Effective Core Potentials                     
  Marius Retegan         : Local ZFS, SOC                                
  Christoph Riplinger    : Optimizer, TS searches, QM/MM, DLPNO-CCSD(T), (RO)-DLPNO pert. Triples 
  Michael Roemelt        : Original ROCIS implementation, recursive CI coupling coefficients
  Masaaki Saitow         : Open-shell DLPNO-CCSD energy and density      
  Barbara Sandhoefer     : DKH picture change effects                    
  Yorick L. A. Schmerwitz: GMF and freeze-and-release deltaSCF, NEB S-IDPP initial path                    
  Kantharuban Sivalingam : CASSCF convergence/infrastructure, NEVPT2, NEVPT3, NEVPT4(SD), FIC-MRCI and CEPA variants
  Bernardo de Souza      : ESD, SOC TD-DFT                               
  Georgi L. Stoychev     : AutoAux, RI-MP2 NMR, DLPNO-MP2 response, X2C  
  Van Anh Tran           : RI-MP2 g-tensors                              
  Willem Van den Heuvel  : Paramagnetic NMR                              
  Zikuan Wang            : NOTCH, Electric field optimization            
  Frank Wennmohs         : Technical directorship and infrastructure     
  Hang Xu                : AUTO-CI-Response properties                   
                                                                         
[FACCTs GmbH]                                                            
  Markus Bursch, Nicolas Foglia, Miquel Garcia-Rates, Ingolf Harden, Hagen Neugebauer, Anastasios Papadopoulos, 
  Christoph Riplinger, Bernardo de Souza, Georgi L. Stoychev                                                    
                                                                 
  APM, various basis sets, CI-OPT, improved COSX, DLPNO-Multilevel,           
  DOCKER, DRACO, updates on ESD, Fragmentator, GOAT, IRC, LR-CPCM, L-BFGS, MBIS, meta-GGA TD-DFT gradient, ML-optimized integration grids, 
  MM, NACMEs, nearIR, NEB, NEB-TS, NL-DFT gradient (VV10), 2- and 3-layer-ONIOM, interface openCOSMO-RS, QMMM,   
  Crystal-QMMM, RESP, rigid body optimization, SF, symmetry and pop. for TD-DFT, various functionals, SOLVATOR                                   
                                                                         
[Other institutions]                                                     
  V. Asgeirsson          : NEB                                           
  Christoph Bannwarth    : sTDA-DFT, sTD-DFT, PBEh-3c, B97-3c, D3        
  Giovanni Bistoni       : ETS/NOCV, ADLD/ADEX, COVALED                  
  Martin Brehm           : Molecular dynamics                            
  Ronald Cardenas        : ETS/NOCV                                      
  Martina Colucci        : COVALED                                       
  Sebastian Ehlert       : rSCAN, r2SCAN, r2SCAN-3c, D4, dhf basis sets  
  Marvin Friede          : D4 for Fr, Ra, Ac-Lr                          
  Lars Goerigk           : TD-DFT with DH, B97 family of functionals     
  Stefan Grimme          : VdW corrections, initial TS optimization, DFT functionals, gCP, sTDA/sTD-DF 
  Waldemar Hujo          : DFT-NL                                        
  H. Jonsson             : NEB                                           
  Holger Kruse           : gCP                                           
  Marcel Mueller         : wB97X-3c, vDZP basis set                      
  Hagen Neugebauer       : wr2SCAN, Native XTB                           
  Gianluca Regni         : ADLD/ADEX                                     
  Tobias Risthaus        : pre 6.0 range-separated hybrid DFT and stability analysis
  Lukas Wittmann         : regularized MP2, r2SCAN double-hybrids, wr2SCAN        
                                                                         
We gratefully acknowledge several colleagues who have allowed us to      
interface, adapt or use parts of their codes:                            
  Ed Valeev, F. Pavosevic, A. Kumar             : LibInt (2-el integral package), F12 methods 
  Garnet Chan, S. Sharma, J. Yang, R. Olivares  : DMRG                   
  Ulf Ekstrom                                   : XCFun DFT Library      
  Mihaly Kallay                                 : mrcc  (arbitrary order and MRCC methods)
  Frank Weinhold                                : gennbo (NPA and NBO analysis)           
  Simon Mueller                                 : openCOSMO-RS                            
  Christopher J. Cramer and Donald G. Truhlar   : smd solvation model                     
  S Lehtola, MJT Oliveira, MAL Marques          : LibXC Library                           
  Liviu Ungur et al                             : ANISO software                          


 Your calculation uses the libint2 library for the computation of 2-el integrals
 For citations please refer to: http://libint.valeyev.net

 Your ORCA version has been built with support for libXC version: 7.0.0
 For citations please refer to: https://libxc.gitlab.io

 This ORCA versions uses:
   CBLAS   interface :  Fast vector & matrix operations
   LAPACKE interface :  Fast linear algebra routines
   SCALAPACK package :  Parallel linear algebra routines
   Shared memory     :  Shared parallel matrices
   BLAS/LAPACK       :  OpenBLAS 0.3.29  USE64BITINT DYNAMIC_ARCH NO_AFFINITY Zen SINGLE_THREADED
        Core in use  :  Zen
   Copyright (c) 2011-2014, The OpenBLAS Project


  ***********************************
  * Starting time: Fri Apr 17 12:14:55 2026
  * Host name:     vmi3233575
  * Process ID:    340734
  * Working dir.:  /root/orca_b12_vps_pack/jobs/01_xtb/mult_3
  ***********************************

NOTE: MaxCore=500 MB was set to SCF,MP2,MDCI,CIPSI,MRCI,RASCI and CIS
      => If you want to overwrite this, your respective input block should be placed after the MaxCore statement


***************************************
The coordinates will be read from file: ../../../starts/ring12_d1.50.xyz
***************************************


Your calculation utilizes the semiempirical GFN2-xTB method
Please cite in your paper:
Bannwarth, C.; Ehlert S.; Grimme, S. J. Chem. Theory Comput. 2019, 15, 1652.
   

================================================================================

================================================================================
                                        WARNINGS
                       Please study these warnings very carefully!
================================================================================


WARNING: Geometry Optimization
  ===> : Switching off AutoStart
         For restart on a previous wavefunction, please use MOREAD

WARNING: Found dipole moment calculation with XTB calculation
  ===> : Switching off dipole moment calculation

Environment variable XTBEXE for xtb has been set!

================================================================================
                                       INPUT FILE
================================================================================
NAME = ring12_d1.50_m3.inp
|  1> ! GFN2-xTB TightSCF TightOpt
|  2> 
|  3> %pal
|  4>   nprocs 1
|  5> end
|  6> 
|  7> %maxcore 500
|  8> 
|  9> * xyzfile 0 3 ../../../starts/ring12_d1.50.xyz
| 10> 
| 11>                          ****END OF INPUT****
================================================================================

                       *****************************
                       * Geometry Optimization Run *
                       *****************************

Geometry optimization settings:
Update method            Update   .... BFGS
Choice of coordinates    CoordSys .... (2022) Redundant Internals
Initial Hessian          InHess   .... Almloef's Model
Max. no of cycles        MaxIter  .... 50

Convergence Tolerances:
Energy Change            TolE     ....  1.0000e-06 Eh
Max. Gradient            TolMAXG  ....  1.0000e-04 Eh/bohr
RMS Gradient             TolRMSG  ....  3.0000e-05 Eh/bohr
Max. Displacement        TolMAXD  ....  1.0000e-03 bohr
RMS Displacement         TolRMSD  ....  6.0000e-04 bohr
Strict Convergence                .... False

------------------------------------------------------------------------------
                        ORCA OPTIMIZATION COORDINATE SETUP
------------------------------------------------------------------------------

The optimization will be done in redundant internal coordinates (2022)
Making redundant internal coordinates   ...  (2022 redundants) done
Evaluating the initial hessian          ...  (Almloef) done
Evaluating the coordinates              ...  done
Calculating the B-matrix                .... done
Calculating the G-matrix                .... done
The number of degrees of freedom        ....   36

    -----------------------------------------------------------------
                    Redundant Internal Coordinates


    -----------------------------------------------------------------
         Definition                    Initial Value    Approx d2E/dq
    -----------------------------------------------------------------
      1. B(B   1,B   0)                  1.5000         0.559597   
      2. B(B   2,B   1)                  1.5000         0.559597   
      3. B(B   3,B   2)                  1.5000         0.559597   
      4. B(B   4,B   3)                  1.5000         0.559597   
      5. B(B   5,B   4)                  1.5000         0.559597   
      6. B(B   6,B   5)                  1.5000         0.559597   
      7. B(B   7,B   6)                  1.5000         0.559597   
      8. B(B   8,B   7)                  1.5000         0.559597   
      9. B(B   9,B   8)                  1.5000         0.559597   
     10. B(B  10,B   9)                  1.5000         0.559597   
     11. B(B  11,B  10)                  1.5000         0.559597   
     12. B(B  11,B   0)                  1.5000         0.559597   
     13. A(B   1,B   0,B  11)          150.0000         0.432737   
     14. A(B   0,B   1,B   2)          150.0000         0.432737   
     15. A(B   1,B   2,B   3)          150.0000         0.432737   
     16. A(B   2,B   3,B   4)          150.0000         0.432737   
     17. A(B   3,B   4,B   5)          150.0000         0.432737   
     18. A(B   4,B   5,B   6)          150.0000         0.432737   
     19. A(B   5,B   6,B   7)          150.0000         0.432737   
     20. A(B   6,B   7,B   8)          150.0000         0.432737   
     21. A(B   7,B   8,B   9)          150.0000         0.432737   
     22. A(B   8,B   9,B  10)          150.0000         0.432737   
     23. A(B   9,B  10,B  11)          150.0000         0.432737   
     24. A(B   0,B  11,B  10)          150.0000         0.432737   
     25. D(B   2,B   1,B   0,B  11)      0.0000         0.011884   
     26. D(B   3,B   2,B   1,B   0)      0.0000         0.011884   
     27. D(B   4,B   3,B   2,B   1)      0.0000         0.011884   
     28. D(B   5,B   4,B   3,B   2)      0.0000         0.011884   
     29. D(B   6,B   5,B   4,B   3)      0.0000         0.011884   
     30. D(B   7,B   6,B   5,B   4)      0.0000         0.011884   
     31. D(B   8,B   7,B   6,B   5)      0.0000         0.011884   
     32. D(B   9,B   8,B   7,B   6)      0.0000         0.011884   
     33. D(B  10,B   9,B   8,B   7)      0.0000         0.011884   
     34. D(B  11,B  10,B   9,B   8)      0.0000         0.011884   
     35. D(B   0,B  11,B  10,B   9)      0.0000         0.011884   
     36. D(B  10,B  11,B   0,B   1)      0.0000         0.011884   
    -----------------------------------------------------------------

Number of atoms                         .... 12
Number of degrees of freedom            .... 36


         *************************************************************
         *                GEOMETRY OPTIMIZATION CYCLE   1            *
         *************************************************************
---------------------------------
CARTESIAN COORDINATES (ANGSTROEM)
---------------------------------
  B     2.897777   -0.000000    0.000000
  B     2.509549    1.448889    0.000000
  B     1.448889    2.509549    0.000000
  B     0.000000    2.897777    0.000000
  B    -1.448889    2.509549    0.000000
  B    -2.509549    1.448889    0.000000
  B    -2.897777    0.000000    0.000000
  B    -2.509549   -1.448889    0.000000
  B    -1.448889   -2.509549    0.000000
  B    -0.000000   -2.897777    0.000000
  B     1.448889   -2.509549    0.000000
  B     2.509549   -1.448889    0.000000

----------------------------
CARTESIAN COORDINATES (A.U.)
----------------------------
  NO LB    ZA    FRAG    MASS        X           Y           Z
   0 B   5.0000    0    10.810    5.476006   -0.000000    0.000000
   1 B   5.0000    0    10.810    4.742360    2.738003    0.000000
   2 B   5.0000    0    10.810    2.738003    4.742360    0.000000
   3 B   5.0000    0    10.810    0.000000    5.476006    0.000000
   4 B   5.0000    0    10.810   -2.738003    4.742360    0.000000
   5 B   5.0000    0    10.810   -4.742360    2.738003    0.000000
   6 B   5.0000    0    10.810   -5.476006    0.000000    0.000000
   7 B   5.0000    0    10.810   -4.742360   -2.738003    0.000000
   8 B   5.0000    0    10.810   -2.738003   -4.742360    0.000000
   9 B   5.0000    0    10.810   -0.000000   -5.476006    0.000000
  10 B   5.0000    0    10.810    2.738003   -4.742360    0.000000
  11 B   5.0000    0    10.810    4.742360   -2.738003    0.000000

      -----------------------------------------------------------      
     |                   =====================                   |     
     |                           x T B                           |     
     |                   =====================                   |     
     |                         S. Grimme                         |     
     |          Mulliken Center for Theoretical Chemistry        |     
     |                    University of Bonn                     |     
      -----------------------------------------------------------      

   * xtb version 6.6.1 (unknown) compiled by 'builduser@buildhost' on 2023-08-07

   xtb is free software: you can redistribute it and/or modify it under
   the terms of the GNU Lesser General Public License as published by
   the Free Software Foundation, either version 3 of the License, or
   (at your option) any later version.
   
   xtb is distributed in the hope that it will be useful,
   but WITHOUT ANY WARRANTY; without even the implied warranty of
   MERCHANTABILITY or FITNESS FOR A PARTICULAR PURPOSE.  See the
   GNU Lesser General Public License for more details.
   
   Cite this work as:
   * C. Bannwarth, E. Caldeweyher, S. Ehlert, A. Hansen, P. Pracht,
     J. Seibert, S. Spicher, S. Grimme, WIREs Comput. Mol. Sci., 2020, 11,
     e01493. DOI: 10.1002/wcms.1493
   
   for GFN2-xTB:
   * C. Bannwarth, S. Ehlert and S. Grimme., J. Chem. Theory Comput., 2019,
     15, 1652-1671. DOI: 10.1021/acs.jctc.8b01176
   for GFN1-xTB:
   * S. Grimme, C. Bannwarth, P. Shushkov, J. Chem. Theory Comput., 2017,
     13, 1989-2009. DOI: 10.1021/acs.jctc.7b00118
   for GFN0-xTB:
   * P. Pracht, E. Caldeweyher, S. Ehlert, S. Grimme, ChemRxiv, 2019, preprint.
     DOI: 10.26434/chemrxiv.8326202.v1
   for GFN-FF:
   * S. Spicher and S. Grimme, Angew. Chem. Int. Ed., 2020, 59, 15665-15673.
     DOI: 10.1002/anie.202004239
   
   for ALPB and GBSA implicit solvation:
   * S. Ehlert, M. Stahn, S. Spicher, S. Grimme, J. Chem. Theory Comput.,
     2021, 17, 4250-4261. DOI: 10.1021/acs.jctc.1c00471
   
   for DFT-D4:
   * E. Caldeweyher, C. Bannwarth and S. Grimme, J. Chem. Phys., 2017,
     147, 034112. DOI: 10.1063/1.4993215
   * E. Caldeweyher, S. Ehlert, A. Hansen, H. Neugebauer, S. Spicher,
     C. Bannwarth and S. Grimme, J. Chem. Phys., 2019, 150, 154122.
     DOI: 10.1063/1.5090222
   * E. Caldeweyher, J.-M. Mewes, S. Ehlert and S. Grimme, Phys. Chem. Chem. Phys.
     2020, 22, 8499-8512. DOI: 10.1039/D0CP00502A
   
   for sTDA-xTB:
   * S. Grimme and C. Bannwarth, J. Chem. Phys., 2016, 145, 054103.
     DOI: 10.1063/1.4959605
   
   in the mass-spec context:
   * V. Asgeirsson, C. Bauer and S. Grimme, Chem. Sci., 2017, 8, 4879.
     DOI: 10.1039/c7sc00601b
   * J. Koopman and S. Grimme, ACS Omega 2019, 4, 12, 15120-15133.
     DOI: 10.1021/acsomega.9b02011
   
   for metadynamics refer to:
   * S. Grimme, J. Chem. Theory Comput., 2019, 155, 2847-2862
     DOI: 10.1021/acs.jctc.9b00143
   
   for SPH calculations refer to:
   * S. Spicher and S. Grimme, J. Chem. Theory Comput., 2021, 17, 1701-1714
     DOI: 10.1021/acs.jctc.0c01306
   
   with help from (in alphabetical order)
   P. Atkinson, C. Bannwarth, F. Bohle, G. Brandenburg, E. Caldeweyher
   M. Checinski, S. Dohm, S. Ehlert, S. Ehrlich, I. Gerasimov, C. Hölzer
   A. Katbashev, J. Koopman, C. Lavigne, S. Lehtola, F. März, M. Müller,
   F. Musil, H. Neugebauer, J. Pisarek, C. Plett, P. Pracht, F. Pultar,
   J. Seibert, P. Shushkov, S. Spicher, M. Stahn, M. Steiner, T. Strunk,
   J. Stückrath, T. Rose, and J. Unsleber
   
 * started run on 2026/04/17 at 12:14:55.863     

           -------------------------------------------------
          |                Calculation Setup                |
           -------------------------------------------------

          program call               : /usr/bin/xtb ring12_d1.50_m3_XTB.xyz --grad -c 0 -u 2 -P 1 --namespace ring12_d1.50_m3 --input ring12_d1.50_m3_XTB.input.tmp --acc 0.200000
          calculation namespace      : ring12_d1.50_m3
          coordinate file            : ring12_d1.50_m3_XTB.xyz
          omp threads                :                     1

   ID    Z sym.   atoms
    1    5 B      1-12

           -------------------------------------------------
          |                 G F N 2 - x T B                 |
           -------------------------------------------------

        Reference                      10.1021/acs.jctc.8b01176
      * Hamiltonian:
        H0-scaling (s, p, d)           1.850000    2.230000    2.230000
        zeta-weighting                 0.500000
      * Dispersion:
        s8                             2.700000
        a1                             0.520000
        a2                             5.000000
        s9                             5.000000
      * Repulsion:
        kExp                           1.500000    1.000000
        rExp                           1.000000
      * Coulomb:
        alpha                          2.000000
        third order                    shell-resolved
        anisotropic                    true
        a3                             3.000000
        a5                             4.000000
        cn-shift                       1.200000
        cn-exp                         4.000000
        max-rad                        5.000000


          ...................................................
          :                      SETUP                      :
          :.................................................:
          :  # basis functions                  48          :
          :  # atomic orbitals                  48          :
          :  # shells                           24          :
          :  # electrons                        36          :
          :  max. iterations                   250          :
          :  Hamiltonian                  GFN2-xTB          :
          :  restarted?                      false          :
          :  GBSA solvation                  false          :
          :  PC potential                    false          :
          :  electronic temp.          300.0000000     K    :
          :  accuracy                    0.2000000          :
          :  -> integral cutoff          0.3198970E+02      :
          :  -> integral neglect         0.2000000E-08      :
          :  -> SCF convergence          0.2000000E-06 Eh   :
          :  -> wf. convergence          0.2000000E-04 e    :
          :  Broyden damping             0.4000000          :
          ...................................................

 iter      E             dE          RMSdq      gap      omega  full diag
   1    -14.5230357 -0.145230E+02  0.254E+01    0.00       0.0  T
   2    -14.5233724 -0.336632E-03  0.153E+01    0.00       1.0  T
   3    -14.5290484 -0.567601E-02  0.126E+00    0.00       1.0  T
   4    -14.5291159 -0.675502E-04  0.533E-01    0.00       1.0  T
   5    -14.5291263 -0.103600E-04  0.705E-02    0.00       1.0  T
   6    -14.5291265 -0.201093E-06  0.197E-02    0.00       1.5  T
   7    -14.5291265 -0.113244E-07  0.281E-03    0.00      10.3  T
   8    -14.5291265  0.427356E-08  0.909E-04    0.00      31.8  T
   9    -14.5291265 -0.491377E-08  0.927E-05    0.00     311.4  T
  10    -14.5291265  0.505445E-10  0.601E-05    0.00     480.4  T

   *** convergence criteria satisfied after 10 iterations ***

         #    Occupation            Energy/Eh            Energy/eV
      -------------------------------------------------------------
         1        2.0000           -0.3959172             -10.7735
       ...           ...                  ...                  ...
        13        2.0000           -0.2836297              -7.7180
        14        2.0000           -0.2833158              -7.7094
        15        1.9982           -0.2768923              -7.5346
        16        1.9982           -0.2768922              -7.5346
        17        1.5019           -0.2709173              -7.3720
        18        1.5018           -0.2709172              -7.3720
        19        0.4997           -0.2366425              -6.4394 (HOMO)
        20        0.4997           -0.2366425              -6.4394 (LUMO)
        21        0.0003           -0.2290684              -6.2333
        22        0.0003           -0.2290684              -6.2333
        23                         -0.1636773              -4.4539
        24                         -0.1636773              -4.4539
       ...                                ...                  ...
        48                          1.2927792              35.1783
      -------------------------------------------------------------
                  HL-Gap            0.0000000 Eh            0.0000 eV
             Fermi-level           -0.2537771 Eh           -6.9056 eV

 transition dipole moment (au) for excitation:          18          19
     X       Y       Z   
   0.0000  -0.0000  -0.0000  total (au/Debye):    0.000   0.000
 dE (eV)             :    0.933
 oscillator strength :  0.22704E-15

 SCC (total)                   0 d,  0 h,  0 min,  0.027 sec
 SCC setup                      ...        0 min,  0.000 sec (  0.992%)
 Dispersion                     ...        0 min,  0.000 sec (  0.346%)
 classical contributions        ...        0 min,  0.000 sec (  0.128%)
 integral evaluation            ...        0 min,  0.003 sec ( 11.538%)
 iterations                     ...        0 min,  0.012 sec ( 43.980%)
 molecular gradient             ...        0 min,  0.007 sec ( 25.658%)
 printout                       ...        0 min,  0.005 sec ( 17.231%)

         :::::::::::::::::::::::::::::::::::::::::::::::::::::
         ::                     SUMMARY                     ::
         :::::::::::::::::::::::::::::::::::::::::::::::::::::
         :: total energy             -14.217844120697 Eh    ::
         :: gradient norm              0.020893088705 Eh/a0 ::
         :: HOMO-LUMO gap              0.000000024390 eV    ::
         ::.................................................::
         :: SCC energy               -14.529126487680 Eh    ::
         :: -> isotropic ES            0.093953772355 Eh    ::
         :: -> anisotropic ES          0.002668575714 Eh    ::
         :: -> anisotropic XC         -0.038203577953 Eh    ::
         :: -> dispersion             -0.012708306653 Eh    ::
         :: repulsion energy           0.311147195042 Eh    ::
         :: add. restraining           0.000000000000 Eh    ::
         :: total charge              -0.000000000762 e     ::
         :::::::::::::::::::::::::::::::::::::::::::::::::::::


Property printout bound to 'properties.out'

           -------------------------------------------------
          | TOTAL ENERGY              -14.217844120697 Eh   |
          | GRADIENT NORM               0.020893088705 Eh/α |
          | HOMO-LUMO GAP               0.000000024390 eV   |
           -------------------------------------------------

------------------------------------------------------------------------
 * finished run on 2026/04/17 at 12:14:55.904     
------------------------------------------------------------------------
 total:
 * wall-time:     0 d,  0 h,  0 min,  0.041 sec
 *  cpu-time:     0 d,  0 h,  0 min,  0.041 sec
 * ratio c/w:     0.999 speedup
 SCF:
 * wall-time:     0 d,  0 h,  0 min,  0.027 sec
 *  cpu-time:     0 d,  0 h,  0 min,  0.027 sec
 * ratio c/w:     1.000 speedup


-------------------------   --------------------
FINAL SINGLE POINT ENERGY       -14.217844120700
-------------------------   --------------------


-------------
DIPOLE MOMENT
-------------
                                X             Y             Z
Total Dipole Moment    :     -0.00000       0.00000       0.00000
                        -----------------------------------------
Magnitude (a.u.)       :      0.00000
Magnitude (Debye)      :      0.00000


------------------
CARTESIAN GRADIENT
------------------

   1   B   :   -0.006031327   -0.000000298   -0.000000000
   2   B   :   -0.005223085   -0.003015747   -0.000000000
   3   B   :   -0.003015687   -0.005223101    0.000000000
   4   B   :   -0.000000259   -0.006031285   -0.000000000
   5   B   :    0.003015582   -0.005223415    0.000000000
   6   B   :    0.005223407   -0.003015611   -0.000000000
   7   B   :    0.006031305    0.000000243   -0.000000000
   8   B   :    0.005223121    0.003015700    0.000000000
   9   B   :    0.003015745    0.005223109   -0.000000000
  10   B   :    0.000000281    0.006031339    0.000000000
  11   B   :   -0.003015618    0.005223461    0.000000000
  12   B   :   -0.005223465    0.003015603   -0.000000000

Difference to translation invariance:
           :   -0.0000000000    0.0000000000    0.0000000000

Difference to rotation invariance:
           :   -0.0000000000   -0.0000000000   -0.0000000000

Norm of the Cartesian gradient     ...    0.0208930887
RMS gradient                       ...    0.0034821815
MAX gradient                       ...    0.0060313392
------------------------------------------------------------------------------
                         ORCA GEOMETRY RELAXATION STEP
------------------------------------------------------------------------------

Reading the OPT-File                    .... done
Getting information on internals        .... done
Copying old internal coords+grads       .... done
Making the new internal coordinates     .... (2022 redundants) done
Validating the new internal coordinates .... (2022 redundants) done
Calculating the B-matrix                .... done
Calculating the G,G- and P matrices     .... done
Transforming gradient to internals      .... done
Projecting the internal gradient        .... done
Number of atoms                         ....  12
Number of internal coordinates          ....  36
Current Energy                          ....   -14.217844121 Eh
Current gradient norm                   ....     0.020893089 Eh/bohr
Maximum allowed component of the step   ....  0.300
Current trust radius                    ....  0.300
Evaluating the initial hessian          ....  (Almloef) done
Projecting the Hessian                  .... done
Forming the augmented Hessian           .... done
Diagonalizing the augmented Hessian     .... done
Last element of RFO vector              ....  0.997435428
Lowest eigenvalues of augmented Hessian:
 -0.002896246  0.011884002  0.011884002  0.011884002  0.011884002
Length of the computed step             ....  0.071756132
The final length of the internal step   ....  0.071756132
Converting the step to Cartesian space:
 Initial RMS(Int)=    0.0119593554
Transforming coordinates:
 Iter   0:  RMS(Cart)=    0.0231037005 RMS(Int)=    0.0119593554
done
Storing new coordinates                 .... done

                                .--------------------.
          ----------------------|Geometry convergence|-------------------------
          Item                value                   Tolerance       Converged
          ---------------------------------------------------------------------
          RMS gradient        0.0067270580            0.0000300000      NO
          MAX gradient        0.0116519286            0.0001000000      NO
          RMS step            0.0119593554            0.0006000000      NO
          MAX step            0.0207147849            0.0010000000      NO
          -------------------------------------------------------------------------
          ........................................................
          Max(Bonds)      0.0110      Max(Angles)    0.00
          Max(Dihed)        0.00      Max(Improp)    0.00
          ---------------------------------------------------------------------

The optimization has not yet converged - more geometry cycles are needed


    ---------------------------------------------------------------------------
                         Redundant Internal Coordinates
                            (Angstroem and degrees)

        Definition                    Value    dE/dq     Step     New-Value
    ----------------------------------------------------------------------------
     1. B(B   1,B   0)                1.5000 -0.011651  0.0110    1.5110   
     2. B(B   2,B   1)                1.5000 -0.011651  0.0110    1.5110   
     3. B(B   3,B   2)                1.5000 -0.011651  0.0110    1.5110   
     4. B(B   4,B   3)                1.5000 -0.011652  0.0110    1.5110   
     5. B(B   5,B   4)                1.5000 -0.011652  0.0110    1.5110   
     6. B(B   6,B   5)                1.5000 -0.011652  0.0110    1.5110   
     7. B(B   7,B   6)                1.5000 -0.011651  0.0110    1.5110   
     8. B(B   8,B   7)                1.5000 -0.011651  0.0110    1.5110   
     9. B(B   9,B   8)                1.5000 -0.011652  0.0110    1.5110   
    10. B(B  10,B   9)                1.5000 -0.011652  0.0110    1.5110   
    11. B(B  11,B  10)                1.5000 -0.011652  0.0110    1.5110   
    12. B(B  11,B   0)                1.5000 -0.011652  0.0110    1.5110   
    13. A(B   1,B   0,B  11)          150.00  0.000000   -0.00    150.00   
    14. A(B   0,B   1,B   2)          150.00 -0.000000    0.00    150.00   
    15. A(B   1,B   2,B   3)          150.00 -0.000000    0.00    150.00   
    16. A(B   2,B   3,B   4)          150.00 -0.000000    0.00    150.00   
    17. A(B   3,B   4,B   5)          150.00  0.000000   -0.00    150.00   
    18. A(B   4,B   5,B   6)          150.00  0.000000   -0.00    150.00   
    19. A(B   5,B   6,B   7)          150.00 -0.000000    0.00    150.00   
    20. A(B   6,B   7,B   8)          150.00 -0.000000    0.00    150.00   
    21. A(B   7,B   8,B   9)          150.00 -0.000000    0.00    150.00   
    22. A(B   8,B   9,B  10)          150.00  0.000000   -0.00    150.00   
    23. A(B   9,B  10,B  11)          150.00  0.000000   -0.00    150.00   
    24. A(B   0,B  11,B  10)          150.00  0.000000   -0.00    150.00   
    25. D(B   2,B   1,B   0,B  11)      0.00 -0.000000    0.00      0.00   
    26. D(B   3,B   2,B   1,B   0)      0.00 -0.000000   -0.00     -0.00   
    27. D(B   4,B   3,B   2,B   1)      0.00  0.000000    0.00      0.00   
    28. D(B   5,B   4,B   3,B   2)      0.00  0.000000    0.00      0.00   
    29. D(B   6,B   5,B   4,B   3)      0.00  0.000000   -0.00     -0.00   
    30. D(B   7,B   6,B   5,B   4)      0.00  0.000000   -0.00     -0.00   
    31. D(B   8,B   7,B   6,B   5)      0.00 -0.000000    0.00      0.00   
    32. D(B   9,B   8,B   7,B   6)      0.00 -0.000000    0.00      0.00   
    33. D(B  10,B   9,B   8,B   7)      0.00 -0.000000   -0.00     -0.00   
    34. D(B  11,B  10,B   9,B   8)      0.00 -0.000000   -0.00     -0.00   
    35. D(B   0,B  11,B  10,B   9)      0.00  0.000000    0.00      0.00   
    36. D(B  10,B  11,B   0,B   1)      0.00  0.000000   -0.00     -0.00   
    ----------------------------------------------------------------------------

Geometry step timings:
Preparation and reading OPT file:      0.000 s ( 3.446 %)
Internal coordinates            :      0.000 s ( 1.787 %)
B/P matrices and projection     :      0.000 s (27.313 %)
Hessian update/contruction      :      0.000 s (15.635 %)
Making the step                 :      0.000 s (19.209 %)
Converting the step to Cartesian:      0.000 s ( 3.318 %)
Storing new data                :      0.000 s ( 2.744 %)
Checking convergence            :      0.000 s ( 3.382 %)
Final printing                  :      0.000 s (23.165 %)
Total time                      :      0.002 s

Time for energy+gradient        :      0.053 s
Time for complete geometry iter :      0.056 s

         *************************************************************
         *                GEOMETRY OPTIMIZATION CYCLE   2            *
         *************************************************************
---------------------------------
CARTESIAN COORDINATES (ANGSTROEM)
---------------------------------
  B     2.918953    0.000000    0.000000
  B     2.527888    1.459477   -0.000000
  B     1.459477    2.527888    0.000000
  B     0.000000    2.918953    0.000000
  B    -1.459477    2.527888   -0.000000
  B    -2.527888    1.459477    0.000000
  B    -2.918953   -0.000000    0.000000
  B    -2.527888   -1.459477   -0.000000
  B    -1.459477   -2.527888   -0.000000
  B    -0.000000   -2.918953    0.000000
  B     1.459477   -2.527888    0.000000
  B     2.527888   -1.459477   -0.000000

----------------------------
CARTESIAN COORDINATES (A.U.)
----------------------------
  NO LB    ZA    FRAG    MASS        X           Y           Z
   0 B   5.0000    0    10.810    5.516023    0.000001    0.000000
   1 B   5.0000    0    10.810    4.777016    2.758012   -0.000000
   2 B   5.0000    0    10.810    2.758011    4.777016    0.000000
   3 B   5.0000    0    10.810    0.000000    5.516023    0.000000
   4 B   5.0000    0    10.810   -2.758011    4.777016   -0.000000
   5 B   5.0000    0    10.810   -4.777016    2.758011    0.000000
   6 B   5.0000    0    10.810   -5.516023   -0.000000    0.000000
   7 B   5.0000    0    10.810   -4.777016   -2.758011   -0.000000
   8 B   5.0000    0    10.810   -2.758012   -4.777016   -0.000000
   9 B   5.0000    0    10.810   -0.000001   -5.516023    0.000000
  10 B   5.0000    0    10.810    2.758011   -4.777016    0.000000
  11 B   5.0000    0    10.810    4.777016   -2.758011   -0.000000

      -----------------------------------------------------------      
     |                   =====================                   |     
     |                           x T B                           |     
     |                   =====================                   |     
     |                         S. Grimme                         |     
     |          Mulliken Center for Theoretical Chemistry        |     
     |                    University of Bonn                     |     
      -----------------------------------------------------------      

   * xtb version 6.6.1 (unknown) compiled by 'builduser@buildhost' on 2023-08-07

   xtb is free software: you can redistribute it and/or modify it under
   the terms of the GNU Lesser General Public License as published by
   the Free Software Foundation, either version 3 of the License, or
   (at your option) any later version.
   
   xtb is distributed in the hope that it will be useful,
   but WITHOUT ANY WARRANTY; without even the implied warranty of
   MERCHANTABILITY or FITNESS FOR A PARTICULAR PURPOSE.  See the
   GNU Lesser General Public License for more details.
   
   Cite this work as:
   * C. Bannwarth, E. Caldeweyher, S. Ehlert, A. Hansen, P. Pracht,
     J. Seibert, S. Spicher, S. Grimme, WIREs Comput. Mol. Sci., 2020, 11,
     e01493. DOI: 10.1002/wcms.1493
   
   for GFN2-xTB:
   * C. Bannwarth, S. Ehlert and S. Grimme., J. Chem. Theory Comput., 2019,
     15, 1652-1671. DOI: 10.1021/acs.jctc.8b01176
   for GFN1-xTB:
   * S. Grimme, C. Bannwarth, P. Shushkov, J. Chem. Theory Comput., 2017,
     13, 1989-2009. DOI: 10.1021/acs.jctc.7b00118
   for GFN0-xTB:
   * P. Pracht, E. Caldeweyher, S. Ehlert, S. Grimme, ChemRxiv, 2019, preprint.
     DOI: 10.26434/chemrxiv.8326202.v1
   for GFN-FF:
   * S. Spicher and S. Grimme, Angew. Chem. Int. Ed., 2020, 59, 15665-15673.
     DOI: 10.1002/anie.202004239
   
   for ALPB and GBSA implicit solvation:
   * S. Ehlert, M. Stahn, S. Spicher, S. Grimme, J. Chem. Theory Comput.,
     2021, 17, 4250-4261. DOI: 10.1021/acs.jctc.1c00471
   
   for DFT-D4:
   * E. Caldeweyher, C. Bannwarth and S. Grimme, J. Chem. Phys., 2017,
     147, 034112. DOI: 10.1063/1.4993215
   * E. Caldeweyher, S. Ehlert, A. Hansen, H. Neugebauer, S. Spicher,
     C. Bannwarth and S. Grimme, J. Chem. Phys., 2019, 150, 154122.
     DOI: 10.1063/1.5090222
   * E. Caldeweyher, J.-M. Mewes, S. Ehlert and S. Grimme, Phys. Chem. Chem. Phys.
     2020, 22, 8499-8512. DOI: 10.1039/D0CP00502A
   
   for sTDA-xTB:
   * S. Grimme and C. Bannwarth, J. Chem. Phys., 2016, 145, 054103.
     DOI: 10.1063/1.4959605
   
   in the mass-spec context:
   * V. Asgeirsson, C. Bauer and S. Grimme, Chem. Sci., 2017, 8, 4879.
     DOI: 10.1039/c7sc00601b
   * J. Koopman and S. Grimme, ACS Omega 2019, 4, 12, 15120-15133.
     DOI: 10.1021/acsomega.9b02011
   
   for metadynamics refer to:
   * S. Grimme, J. Chem. Theory Comput., 2019, 155, 2847-2862
     DOI: 10.1021/acs.jctc.9b00143
   
   for SPH calculations refer to:
   * S. Spicher and S. Grimme, J. Chem. Theory Comput., 2021, 17, 1701-1714
     DOI: 10.1021/acs.jctc.0c01306
   
   with help from (in alphabetical order)
   P. Atkinson, C. Bannwarth, F. Bohle, G. Brandenburg, E. Caldeweyher
   M. Checinski, S. Dohm, S. Ehlert, S. Ehrlich, I. Gerasimov, C. Hölzer
   A. Katbashev, J. Koopman, C. Lavigne, S. Lehtola, F. März, M. Müller,
   F. Musil, H. Neugebauer, J. Pisarek, C. Plett, P. Pracht, F. Pultar,
   J. Seibert, P. Shushkov, S. Spicher, M. Stahn, M. Steiner, T. Strunk,
   J. Stückrath, T. Rose, and J. Unsleber
   
 * started run on 2026/04/17 at 12:14:55.924     

           -------------------------------------------------
          |                Calculation Setup                |
           -------------------------------------------------

          program call               : /usr/bin/xtb ring12_d1.50_m3_XTB.xyz --grad -c 0 -u 2 -P 1 --namespace ring12_d1.50_m3 --input ring12_d1.50_m3_XTB.input.tmp --acc 0.200000
          calculation namespace      : ring12_d1.50_m3
          coordinate file            : ring12_d1.50_m3_XTB.xyz
          omp threads                :                     1

   ID    Z sym.   atoms
    1    5 B      1-12

           -------------------------------------------------
          |                 G F N 2 - x T B                 |
           -------------------------------------------------

        Reference                      10.1021/acs.jctc.8b01176
      * Hamiltonian:
        H0-scaling (s, p, d)           1.850000    2.230000    2.230000
        zeta-weighting                 0.500000
      * Dispersion:
        s8                             2.700000
        a1                             0.520000
        a2                             5.000000
        s9                             5.000000
      * Repulsion:
        kExp                           1.500000    1.000000
        rExp                           1.000000
      * Coulomb:
        alpha                          2.000000
        third order                    shell-resolved
        anisotropic                    true
        a3                             3.000000
        a5                             4.000000
        cn-shift                       1.200000
        cn-exp                         4.000000
        max-rad                        5.000000

q/qsh data taken from xtbrestart
CAMM data taken from xtbrestart

          ...................................................
          :                      SETUP                      :
          :.................................................:
          :  # basis functions                  48          :
          :  # atomic orbitals                  48          :
          :  # shells                           24          :
          :  # electrons                        36          :
          :  max. iterations                   250          :
          :  Hamiltonian                  GFN2-xTB          :
          :  restarted?                       true          :
          :  GBSA solvation                  false          :
          :  PC potential                    false          :
          :  electronic temp.          300.0000000     K    :
          :  accuracy                    0.2000000          :
          :  -> integral cutoff          0.3198970E+02      :
          :  -> integral neglect         0.2000000E-08      :
          :  -> SCF convergence          0.2000000E-06 Eh   :
          :  -> wf. convergence          0.2000000E-04 e    :
          :  Broyden damping             0.4000000          :
          ...................................................

 iter      E             dE          RMSdq      gap      omega  full diag
   1    -14.5072562 -0.145073E+02  0.271E-01    0.00       0.0  T
   2    -14.5072569 -0.644799E-06  0.168E-01    0.00       1.0  T
   3    -14.5072571 -0.260469E-06  0.587E-03    0.00       4.9  T
   4    -14.5072415  0.156000E-04  0.272E-02    0.00       1.1  T
   5    -14.5072571 -0.156051E-04  0.139E-03    0.00      20.7  T
   6    -14.5072557  0.141650E-05  0.552E-03    0.00       5.2  T
   7    -14.5072572 -0.146500E-05  0.183E-04    0.00     157.4  T
   8    -14.5072572  0.947827E-09  0.362E-04    0.00      79.7  T
   9    -14.5072572  0.133621E-08  0.356E-04    0.00      81.1  T
  10    -14.5072572 -0.249480E-08  0.908E-06    0.00    3178.1  T
  11    -14.5072572  0.417142E-10  0.304E-05    0.00     950.1  T

   *** convergence criteria satisfied after 11 iterations ***

         #    Occupation            Energy/Eh            Energy/eV
      -------------------------------------------------------------
         1        2.0000           -0.3952565             -10.7555
       ...           ...                  ...                  ...
        13        2.0000           -0.2847098              -7.7473
        14        2.0000           -0.2823274              -7.6825
        15        1.9979           -0.2759561              -7.5091
        16        1.9979           -0.2759560              -7.5091
        17        1.5021           -0.2700901              -7.3495
        18        1.5021           -0.2700901              -7.3495
        19        0.4996           -0.2362376              -6.4284 (HOMO)
        20        0.4996           -0.2362376              -6.4284 (LUMO)
        21        0.0004           -0.2288927              -6.2285
        22        0.0004           -0.2288927              -6.2285
        23                         -0.1644956              -4.4762
        24                         -0.1644956              -4.4762
       ...                                ...                  ...
        48                          1.2449957              33.8781
      -------------------------------------------------------------
                  HL-Gap            0.0000000 Eh            0.0000 eV
             Fermi-level           -0.2531607 Eh           -6.8889 eV

 transition dipole moment (au) for excitation:          18          19
     X       Y       Z   
  -0.0000   0.0000   0.0000  total (au/Debye):    0.000   0.000
 dE (eV)             :    0.921
 oscillator strength :  0.94227E-17

 SCC (total)                   0 d,  0 h,  0 min,  0.024 sec
 SCC setup                      ...        0 min,  0.000 sec (  0.686%)
 Dispersion                     ...        0 min,  0.000 sec (  0.405%)
 classical contributions        ...        0 min,  0.000 sec (  0.143%)
 integral evaluation            ...        0 min,  0.003 sec ( 11.043%)
 iterations                     ...        0 min,  0.012 sec ( 50.172%)
 molecular gradient             ...        0 min,  0.005 sec ( 22.590%)
 printout                       ...        0 min,  0.004 sec ( 14.859%)

         :::::::::::::::::::::::::::::::::::::::::::::::::::::
         ::                     SUMMARY                     ::
         :::::::::::::::::::::::::::::::::::::::::::::::::::::
         :: total energy             -14.219688542682 Eh    ::
         :: gradient norm              0.005894366495 Eh/a0 ::
         :: HOMO-LUMO gap              0.000000017811 eV    ::
         ::.................................................::
         :: SCC energy               -14.507257197558 Eh    ::
         :: -> isotropic ES            0.094056225203 Eh    ::
         :: -> anisotropic ES          0.002809970770 Eh    ::
         :: -> anisotropic XC         -0.039285301207 Eh    ::
         :: -> dispersion             -0.012563473935 Eh    ::
         :: repulsion energy           0.287431108938 Eh    ::
         :: add. restraining           0.000000000000 Eh    ::
         :: total charge               0.000000000000 e     ::
         :::::::::::::::::::::::::::::::::::::::::::::::::::::


Property printout bound to 'properties.out'

           -------------------------------------------------
          | TOTAL ENERGY              -14.219688542682 Eh   |
          | GRADIENT NORM               0.005894366495 Eh/α |
          | HOMO-LUMO GAP               0.000000017811 eV   |
           -------------------------------------------------

------------------------------------------------------------------------
 * finished run on 2026/04/17 at 12:14:55.962     
------------------------------------------------------------------------
 total:
 * wall-time:     0 d,  0 h,  0 min,  0.037 sec
 *  cpu-time:     0 d,  0 h,  0 min,  0.037 sec
 * ratio c/w:     0.999 speedup
 SCF:
 * wall-time:     0 d,  0 h,  0 min,  0.024 sec
 *  cpu-time:     0 d,  0 h,  0 min,  0.024 sec
 * ratio c/w:     1.000 speedup


-------------------------   --------------------
FINAL SINGLE POINT ENERGY       -14.219688542680
-------------------------   --------------------


-------------
DIPOLE MOMENT
-------------
                                X             Y             Z
Total Dipole Moment    :     -0.00000      -0.00000      -0.00000
                        -----------------------------------------
Magnitude (a.u.)       :      0.00000
Magnitude (Debye)      :      0.00000


------------------
CARTESIAN GRADIENT
------------------

   1   B   :   -0.001701489    0.000000181    0.000000000
   2   B   :   -0.001473612   -0.000850736   -0.000000000
   3   B   :   -0.000850730   -0.001473613    0.000000000
   4   B   :    0.000000026   -0.001701526    0.000000000
   5   B   :    0.000850736   -0.001473585   -0.000000000
   6   B   :    0.001473551   -0.000850867    0.000000000
   7   B   :    0.001701634   -0.000000164    0.000000000
   8   B   :    0.001473774    0.000850766   -0.000000000
   9   B   :    0.000850729    0.001473784   -0.000000000
  10   B   :   -0.000000319    0.001701572    0.000000000
  11   B   :   -0.000850879    0.001473396    0.000000000
  12   B   :   -0.001473421    0.000850790   -0.000000000

Difference to translation invariance:
           :   -0.0000000000   -0.0000000000    0.0000000000

Difference to rotation invariance:
           :    0.0000000000   -0.0000000000   -0.0000000051

Norm of the Cartesian gradient     ...    0.0058943665
RMS gradient                       ...    0.0009823944
MAX gradient                       ...    0.0017016338
------------------------------------------------------------------------------
                         ORCA GEOMETRY RELAXATION STEP
------------------------------------------------------------------------------

Reading the OPT-File                    .... done
Getting information on internals        .... done
Copying old internal coords+grads       .... done
Making the new internal coordinates     .... (2022 redundants) done
Validating the new internal coordinates .... (2022 redundants) done
Calculating the B-matrix                .... done
Calculating the G,G- and P matrices     .... done
Transforming gradient to internals      .... done
Projecting the internal gradient        .... done
Number of atoms                         ....  12
Number of internal coordinates          ....  36
Current Energy                          ....   -14.219688543 Eh
Current gradient norm                   ....     0.005894366 Eh/bohr
Maximum allowed component of the step   ....  0.300
Current trust radius                    ....  0.300
Updating the Hessian (BFGS)             .... done
Forming the augmented Hessian           .... done
Diagonalizing the augmented Hessian     .... done
Last element of RFO vector              ....  0.999603261
Lowest eigenvalues of augmented Hessian:
 -0.000320854  0.011884002  0.011884002  0.011884002  0.011884002
Length of the computed step             ....  0.028177143
The final length of the internal step   ....  0.028177143
Converting the step to Cartesian space:
 Initial RMS(Int)=    0.0046961904
Transforming coordinates:
 Iter   0:  RMS(Cart)=    0.0090723432 RMS(Int)=    0.0046961904
done
Storing new coordinates                 .... done
The predicted energy change is          ....    -0.000160555
Previously predicted energy change      ....    -0.001455579
Actually observed energy change         ....    -0.001844422
Ratio of predicted to observed change   ....     1.267139474
New trust radius                        ....     0.300000000

                                .--------------------.
          ----------------------|Geometry convergence|-------------------------
          Item                value                   Tolerance       Converged
          ---------------------------------------------------------------------
          Energy change      -0.0018444220            0.0000010000      NO
          RMS gradient        0.0018978403            0.0000300000      NO
          MAX gradient        0.0032874922            0.0001000000      NO
          RMS step            0.0046961904            0.0006000000      NO
          MAX step            0.0081348806            0.0010000000      NO
          -------------------------------------------------------------------------
          ........................................................
          Max(Bonds)      0.0043      Max(Angles)    0.00
          Max(Dihed)        0.00      Max(Improp)    0.00
          ---------------------------------------------------------------------

The optimization has not yet converged - more geometry cycles are needed


    ---------------------------------------------------------------------------
                         Redundant Internal Coordinates
                            (Angstroem and degrees)

        Definition                    Value    dE/dq     Step     New-Value
    ----------------------------------------------------------------------------
     1. B(B   1,B   0)                1.5110 -0.003287  0.0043    1.5153   
     2. B(B   2,B   1)                1.5110 -0.003287  0.0043    1.5153   
     3. B(B   3,B   2)                1.5110 -0.003287  0.0043    1.5153   
     4. B(B   4,B   3)                1.5110 -0.003287  0.0043    1.5153   
     5. B(B   5,B   4)                1.5110 -0.003287  0.0043    1.5153   
     6. B(B   6,B   5)                1.5110 -0.003287  0.0043    1.5153   
     7. B(B   7,B   6)                1.5110 -0.003287  0.0043    1.5153   
     8. B(B   8,B   7)                1.5110 -0.003287  0.0043    1.5153   
     9. B(B   9,B   8)                1.5110 -0.003287  0.0043    1.5153   
    10. B(B  10,B   9)                1.5110 -0.003287  0.0043    1.5153   
    11. B(B  11,B  10)                1.5110 -0.003287  0.0043    1.5153   
    12. B(B  11,B   0)                1.5110 -0.003287  0.0043    1.5153   
    13. A(B   1,B   0,B  11)          150.00 -0.000000    0.00    150.00   
    14. A(B   0,B   1,B   2)          150.00 -0.000000    0.00    150.00   
    15. A(B   1,B   2,B   3)          150.00 -0.000000    0.00    150.00   
    16. A(B   2,B   3,B   4)          150.00 -0.000000    0.00    150.00   
    17. A(B   3,B   4,B   5)          150.00  0.000000   -0.00    150.00   
    18. A(B   4,B   5,B   6)          150.00  0.000000   -0.00    150.00   
    19. A(B   5,B   6,B   7)          150.00  0.000000   -0.00    150.00   
    20. A(B   6,B   7,B   8)          150.00  0.000000   -0.00    150.00   
    21. A(B   7,B   8,B   9)          150.00  0.000000   -0.00    150.00   
    22. A(B   8,B   9,B  10)          150.00  0.000000   -0.00    150.00   
    23. A(B   9,B  10,B  11)          150.00 -0.000000    0.00    150.00   
    24. A(B   0,B  11,B  10)          150.00 -0.000000    0.00    150.00   
    25. D(B   2,B   1,B   0,B  11)      0.00  0.000000   -0.00     -0.00   
    26. D(B   3,B   2,B   1,B   0)     -0.00 -0.000000    0.00     -0.00   
    27. D(B   4,B   3,B   2,B   1)      0.00 -0.000000    0.00      0.00   
    28. D(B   5,B   4,B   3,B   2)      0.00  0.000000   -0.00     -0.00   
    29. D(B   6,B   5,B   4,B   3)     -0.00 -0.000000    0.00     -0.00   
    30. D(B   7,B   6,B   5,B   4)     -0.00  0.000000   -0.00     -0.00   
    31. D(B   8,B   7,B   6,B   5)      0.00  0.000000   -0.00     -0.00   
    32. D(B   9,B   8,B   7,B   6)      0.00 -0.000000    0.00      0.00   
    33. D(B  10,B   9,B   8,B   7)     -0.00 -0.000000    0.00      0.00   
    34. D(B  11,B  10,B   9,B   8)     -0.00  0.000000   -0.00     -0.00   
    35. D(B   0,B  11,B  10,B   9)      0.00  0.000000   -0.00      0.00   
    36. D(B  10,B  11,B   0,B   1)     -0.00 -0.000000    0.00      0.00   
    ----------------------------------------------------------------------------

Geometry step timings:
Preparation and reading OPT file:      0.000 s ( 1.809 %)
Internal coordinates            :      0.000 s ( 2.412 %)
B/P matrices and projection     :      0.000 s (23.191 %)
Hessian update/contruction      :      0.000 s (20.395 %)
Making the step                 :      0.000 s (14.419 %)
Converting the step to Cartesian:      0.000 s ( 2.083 %)
Storing new data                :      0.000 s ( 2.522 %)
Checking convergence            :      0.000 s ( 4.879 %)
Final printing                  :      0.001 s (28.125 %)
Total time                      :      0.002 s

Time for energy+gradient        :      0.054 s
Time for complete geometry iter :      0.057 s

         *************************************************************
         *                GEOMETRY OPTIMIZATION CYCLE   3            *
         *************************************************************
---------------------------------
CARTESIAN COORDINATES (ANGSTROEM)
---------------------------------
  B     2.927269    0.000000   -0.000000
  B     2.535089    1.463634   -0.000000
  B     1.463634    2.535089    0.000000
  B     0.000000    2.927269   -0.000000
  B    -1.463634    2.535089   -0.000000
  B    -2.535089    1.463635   -0.000000
  B    -2.927269    0.000000    0.000000
  B    -2.535089   -1.463634    0.000000
  B    -1.463634   -2.535089   -0.000000
  B     0.000000   -2.927269   -0.000000
  B     1.463635   -2.535089    0.000000
  B     2.535089   -1.463634    0.000000

----------------------------
CARTESIAN COORDINATES (A.U.)
----------------------------
  NO LB    ZA    FRAG    MASS        X           Y           Z
   0 B   5.0000    0    10.810    5.531736    0.000000   -0.000000
   1 B   5.0000    0    10.810    4.790624    2.765868   -0.000000
   2 B   5.0000    0    10.810    2.765868    4.790624    0.000000
   3 B   5.0000    0    10.810    0.000000    5.531736   -0.000000
   4 B   5.0000    0    10.810   -2.765868    4.790625   -0.000000
   5 B   5.0000    0    10.810   -4.790624    2.765869   -0.000000
   6 B   5.0000    0    10.810   -5.531737    0.000000    0.000000
   7 B   5.0000    0    10.810   -4.790624   -2.765868    0.000000
   8 B   5.0000    0    10.810   -2.765868   -4.790625   -0.000000
   9 B   5.0000    0    10.810    0.000001   -5.531737   -0.000000
  10 B   5.0000    0    10.810    2.765869   -4.790624    0.000000
  11 B   5.0000    0    10.810    4.790624   -2.765868    0.000000

      -----------------------------------------------------------      
     |                   =====================                   |     
     |                           x T B                           |     
     |                   =====================                   |     
     |                         S. Grimme                         |     
     |          Mulliken Center for Theoretical Chemistry        |     
     |                    University of Bonn                     |     
      -----------------------------------------------------------      

   * xtb version 6.6.1 (unknown) compiled by 'builduser@buildhost' on 2023-08-07

   xtb is free software: you can redistribute it and/or modify it under
   the terms of the GNU Lesser General Public License as published by
   the Free Software Foundation, either version 3 of the License, or
   (at your option) any later version.
   
   xtb is distributed in the hope that it will be useful,
   but WITHOUT ANY WARRANTY; without even the implied warranty of
   MERCHANTABILITY or FITNESS FOR A PARTICULAR PURPOSE.  See the
   GNU Lesser General Public License for more details.
   
   Cite this work as:
   * C. Bannwarth, E. Caldeweyher, S. Ehlert, A. Hansen, P. Pracht,
     J. Seibert, S. Spicher, S. Grimme, WIREs Comput. Mol. Sci., 2020, 11,
     e01493. DOI: 10.1002/wcms.1493
   
   for GFN2-xTB:
   * C. Bannwarth, S. Ehlert and S. Grimme., J. Chem. Theory Comput., 2019,
     15, 1652-1671. DOI: 10.1021/acs.jctc.8b01176
   for GFN1-xTB:
   * S. Grimme, C. Bannwarth, P. Shushkov, J. Chem. Theory Comput., 2017,
     13, 1989-2009. DOI: 10.1021/acs.jctc.7b00118
   for GFN0-xTB:
   * P. Pracht, E. Caldeweyher, S. Ehlert, S. Grimme, ChemRxiv, 2019, preprint.
     DOI: 10.26434/chemrxiv.8326202.v1
   for GFN-FF:
   * S. Spicher and S. Grimme, Angew. Chem. Int. Ed., 2020, 59, 15665-15673.
     DOI: 10.1002/anie.202004239
   
   for ALPB and GBSA implicit solvation:
   * S. Ehlert, M. Stahn, S. Spicher, S. Grimme, J. Chem. Theory Comput.,
     2021, 17, 4250-4261. DOI: 10.1021/acs.jctc.1c00471
   
   for DFT-D4:
   * E. Caldeweyher, C. Bannwarth and S. Grimme, J. Chem. Phys., 2017,
     147, 034112. DOI: 10.1063/1.4993215
   * E. Caldeweyher, S. Ehlert, A. Hansen, H. Neugebauer, S. Spicher,
     C. Bannwarth and S. Grimme, J. Chem. Phys., 2019, 150, 154122.
     DOI: 10.1063/1.5090222
   * E. Caldeweyher, J.-M. Mewes, S. Ehlert and S. Grimme, Phys. Chem. Chem. Phys.
     2020, 22, 8499-8512. DOI: 10.1039/D0CP00502A
   
   for sTDA-xTB:
   * S. Grimme and C. Bannwarth, J. Chem. Phys., 2016, 145, 054103.
     DOI: 10.1063/1.4959605
   
   in the mass-spec context:
   * V. Asgeirsson, C. Bauer and S. Grimme, Chem. Sci., 2017, 8, 4879.
     DOI: 10.1039/c7sc00601b
   * J. Koopman and S. Grimme, ACS Omega 2019, 4, 12, 15120-15133.
     DOI: 10.1021/acsomega.9b02011
   
   for metadynamics refer to:
   * S. Grimme, J. Chem. Theory Comput., 2019, 155, 2847-2862
     DOI: 10.1021/acs.jctc.9b00143
   
   for SPH calculations refer to:
   * S. Spicher and S. Grimme, J. Chem. Theory Comput., 2021, 17, 1701-1714
     DOI: 10.1021/acs.jctc.0c01306
   
   with help from (in alphabetical order)
   P. Atkinson, C. Bannwarth, F. Bohle, G. Brandenburg, E. Caldeweyher
   M. Checinski, S. Dohm, S. Ehlert, S. Ehrlich, I. Gerasimov, C. Hölzer
   A. Katbashev, J. Koopman, C. Lavigne, S. Lehtola, F. März, M. Müller,
   F. Musil, H. Neugebauer, J. Pisarek, C. Plett, P. Pracht, F. Pultar,
   J. Seibert, P. Shushkov, S. Spicher, M. Stahn, M. Steiner, T. Strunk,
   J. Stückrath, T. Rose, and J. Unsleber
   
 * started run on 2026/04/17 at 12:14:55.975     

           -------------------------------------------------
          |                Calculation Setup                |
           -------------------------------------------------

          program call               : /usr/bin/xtb ring12_d1.50_m3_XTB.xyz --grad -c 0 -u 2 -P 1 --namespace ring12_d1.50_m3 --input ring12_d1.50_m3_XTB.input.tmp --acc 0.200000
          calculation namespace      : ring12_d1.50_m3
          coordinate file            : ring12_d1.50_m3_XTB.xyz
          omp threads                :                     1

   ID    Z sym.   atoms
    1    5 B      1-12

           -------------------------------------------------
          |                 G F N 2 - x T B                 |
           -------------------------------------------------

        Reference                      10.1021/acs.jctc.8b01176
      * Hamiltonian:
        H0-scaling (s, p, d)           1.850000    2.230000    2.230000
        zeta-weighting                 0.500000
      * Dispersion:
        s8                             2.700000
        a1                             0.520000
        a2                             5.000000
        s9                             5.000000
      * Repulsion:
        kExp                           1.500000    1.000000
        rExp                           1.000000
      * Coulomb:
        alpha                          2.000000
        third order                    shell-resolved
        anisotropic                    true
        a3                             3.000000
        a5                             4.000000
        cn-shift                       1.200000
        cn-exp                         4.000000
        max-rad                        5.000000

q/qsh data taken from xtbrestart
CAMM data taken from xtbrestart

          ...................................................
          :                      SETUP                      :
          :.................................................:
          :  # basis functions                  48          :
          :  # atomic orbitals                  48          :
          :  # shells                           24          :
          :  # electrons                        36          :
          :  max. iterations                   250          :
          :  Hamiltonian                  GFN2-xTB          :
          :  restarted?                       true          :
          :  GBSA solvation                  false          :
          :  PC potential                    false          :
          :  electronic temp.          300.0000000     K    :
          :  accuracy                    0.2000000          :
          :  -> integral cutoff          0.3198970E+02      :
          :  -> integral neglect         0.2000000E-08      :
          :  -> SCF convergence          0.2000000E-06 Eh   :
          :  -> wf. convergence          0.2000000E-04 e    :
          :  Broyden damping             0.4000000          :
          ...................................................

 iter      E             dE          RMSdq      gap      omega  full diag
   1    -14.4985989 -0.144986E+02  0.105E-01    0.00       0.0  T
   2    -14.4985990 -0.974812E-07  0.654E-02    0.00       1.0  T
   3    -14.4985990  0.115809E-07  0.278E-03    0.00      10.4  T
   4    -14.4985930  0.605741E-05  0.174E-02    0.00       1.7  T
   5    -14.4985991 -0.609597E-05  0.922E-04    0.00      31.3  T
   6    -14.4985990  0.276162E-07  0.117E-03    0.00      24.7  T
   7    -14.4985990  0.360235E-07  0.134E-03    0.00      21.6  T
   8    -14.4985991 -0.842920E-07  0.448E-05    0.00     644.0  T
   9    -14.4985991 -0.550671E-13  0.205E-05    0.00    1407.6  T

   *** convergence criteria satisfied after 9 iterations ***

         #    Occupation            Energy/Eh            Energy/eV
      -------------------------------------------------------------
         1        2.0000           -0.3949956             -10.7484
       ...           ...                  ...                  ...
        13        2.0000           -0.2851197              -7.7585
        14        2.0000           -0.2819397              -7.6720
        15        1.9978           -0.2755883              -7.4991
        16        1.9978           -0.2755883              -7.4991
        17        1.5022           -0.2697648              -7.3407
        18        1.5022           -0.2697648              -7.3407
        19        0.4995           -0.2360765              -6.4240 (HOMO)
        20        0.4995           -0.2360765              -6.4240 (LUMO)
        21        0.0005           -0.2288198              -6.2265
        22        0.0005           -0.2288198              -6.2265
        23                         -0.1648087              -4.4847
        24                         -0.1648087              -4.4847
       ...                                ...                  ...
        48                          1.2267631              33.3819
      -------------------------------------------------------------
                  HL-Gap            0.0000000 Eh            0.0000 eV
             Fermi-level           -0.2529175 Eh           -6.8822 eV

 transition dipole moment (au) for excitation:          18          19
     X       Y       Z   
   0.0000  -0.0000  -0.0000  total (au/Debye):    0.000   0.000
 dE (eV)             :    0.917
 oscillator strength :  0.71757E-18

 SCC (total)                   0 d,  0 h,  0 min,  0.023 sec
 SCC setup                      ...        0 min,  0.000 sec (  0.583%)
 Dispersion                     ...        0 min,  0.000 sec (  0.400%)
 classical contributions        ...        0 min,  0.000 sec (  0.163%)
 integral evaluation            ...        0 min,  0.003 sec ( 11.137%)
 iterations                     ...        0 min,  0.010 sec ( 44.269%)
 molecular gradient             ...        0 min,  0.006 sec ( 26.309%)
 printout                       ...        0 min,  0.004 sec ( 17.044%)

         :::::::::::::::::::::::::::::::::::::::::::::::::::::
         ::                     SUMMARY                     ::
         :::::::::::::::::::::::::::::::::::::::::::::::::::::
         :: total energy             -14.219856122055 Eh    ::
         :: gradient norm              0.000288763473 Eh/a0 ::
         :: HOMO-LUMO gap              0.000001198002 eV    ::
         ::.................................................::
         :: SCC energy               -14.498599070909 Eh    ::
         :: -> isotropic ES            0.094093019337 Eh    ::
         :: -> anisotropic ES          0.002865050175 Eh    ::
         :: -> anisotropic XC         -0.039710054322 Eh    ::
         :: -> dispersion             -0.012507374235 Eh    ::
         :: repulsion energy           0.278604533748 Eh    ::
         :: add. restraining           0.000000000000 Eh    ::
         :: total charge               0.000000000000 e     ::
         :::::::::::::::::::::::::::::::::::::::::::::::::::::


Property printout bound to 'properties.out'

           -------------------------------------------------
          | TOTAL ENERGY              -14.219856122055 Eh   |
          | GRADIENT NORM               0.000288763473 Eh/α |
          | HOMO-LUMO GAP               0.000001198002 eV   |
           -------------------------------------------------

------------------------------------------------------------------------
 * finished run on 2026/04/17 at 12:14:56.012     
------------------------------------------------------------------------
 total:
 * wall-time:     0 d,  0 h,  0 min,  0.036 sec
 *  cpu-time:     0 d,  0 h,  0 min,  0.036 sec
 * ratio c/w:     0.992 speedup
 SCF:
 * wall-time:     0 d,  0 h,  0 min,  0.023 sec
 *  cpu-time:     0 d,  0 h,  0 min,  0.023 sec
 * ratio c/w:     1.000 speedup


-------------------------   --------------------
FINAL SINGLE POINT ENERGY       -14.219856122060
-------------------------   --------------------


-------------
DIPOLE MOMENT
-------------
                                X             Y             Z
Total Dipole Moment    :     -0.00000      -0.00000       0.00000
                        -----------------------------------------
Magnitude (a.u.)       :      0.00000
Magnitude (Debye)      :      0.00000


------------------
CARTESIAN GRADIENT
------------------

   1   B   :   -0.000083454    0.000000045   -0.000000000
   2   B   :   -0.000072186   -0.000041845   -0.000000000
   3   B   :   -0.000041785   -0.000072202    0.000000000
   4   B   :    0.000000114   -0.000083401   -0.000000000
   5   B   :    0.000041870   -0.000072031   -0.000000000
   6   B   :    0.000072056   -0.000041789   -0.000000000
   7   B   :    0.000083335   -0.000000017    0.000000000
   8   B   :    0.000072020    0.000041836    0.000000000
   9   B   :    0.000041752    0.000072041   -0.000000000
  10   B   :    0.000000127    0.000083324   -0.000000000
  11   B   :   -0.000041715    0.000072172    0.000000000
  12   B   :   -0.000072133    0.000041867    0.000000000

Difference to translation invariance:
           :    0.0000000000   -0.0000000000    0.0000000000

Difference to rotation invariance:
           :   -0.0000000000   -0.0000000000    0.0000000002

Norm of the Cartesian gradient     ...    0.0002887635
RMS gradient                       ...    0.0000481272
MAX gradient                       ...    0.0000834544
------------------------------------------------------------------------------
                         ORCA GEOMETRY RELAXATION STEP
------------------------------------------------------------------------------

Reading the OPT-File                    .... done
Getting information on internals        .... done
Copying old internal coords+grads       .... done
Making the new internal coordinates     .... (2022 redundants) done
Validating the new internal coordinates .... (2022 redundants) done
Calculating the B-matrix                .... done
Calculating the G,G- and P matrices     .... done
Transforming gradient to internals      .... done
Projecting the internal gradient        .... done
Number of atoms                         ....  12
Number of internal coordinates          ....  36
Current Energy                          ....   -14.219856122 Eh
Current gradient norm                   ....     0.000288763 Eh/bohr
Maximum allowed component of the step   ....  0.300
Current trust radius                    ....  0.300
Updating the Hessian (BFGS)             .... done
Forming the augmented Hessian           .... done
Diagonalizing the augmented Hessian     .... done
Last element of RFO vector              ....  0.999998947
Lowest eigenvalues of augmented Hessian:
 -0.000000810  0.011884002  0.011884002  0.011884002  0.011884002
Length of the computed step             ....  0.001451494
The final length of the internal step   ....  0.001451494
Converting the step to Cartesian space:
 Initial RMS(Int)=    0.0002419157
Transforming coordinates:
 Iter   0:  RMS(Cart)=    0.0004673451 RMS(Int)=    0.0002419157
done
Storing new coordinates                 .... done
The predicted energy change is          ....    -0.000000405
Previously predicted energy change      ....    -0.000160555
Actually observed energy change         ....    -0.000167579
Ratio of predicted to observed change   ....     1.043753743
New trust radius                        ....     0.450000000

                                .--------------------.
          ----------------------|Geometry convergence|-------------------------
          Item                value                   Tolerance       Converged
          ---------------------------------------------------------------------
          Energy change      -0.0001675794            0.0000010000      NO
          RMS gradient        0.0000929746            0.0000300000      NO
          MAX gradient        0.0001612518            0.0001000000      NO
          RMS step            0.0002419157            0.0006000000      YES
          MAX step            0.0004194153            0.0010000000      YES
          -------------------------------------------------------------------------
          ........................................................
          Max(Bonds)      0.0002      Max(Angles)    0.00
          Max(Dihed)        0.00      Max(Improp)    0.00
[...]
    21. A(B   7,B   8,B   9)          150.00 -0.000000    0.00    150.00   
    22. A(B   8,B   9,B  10)          150.00 -0.000000    0.00    150.00   
    23. A(B   9,B  10,B  11)          150.00 -0.000000    0.00    150.00   
    24. A(B   0,B  11,B  10)          150.00  0.000000   -0.00    150.00   
    25. D(B   2,B   1,B   0,B  11)      0.00  0.000000   -0.00     -0.00   
    26. D(B   3,B   2,B   1,B   0)      0.00  0.000000   -0.00     -0.00   
    27. D(B   4,B   3,B   2,B   1)     -0.00 -0.000000    0.00      0.00   
    28. D(B   5,B   4,B   3,B   2)     -0.00 -0.000000    0.00      0.00   
    29. D(B   6,B   5,B   4,B   3)      0.00  0.000000   -0.00     -0.00   
    30. D(B   7,B   6,B   5,B   4)      0.00  0.000000   -0.00     -0.00   
    31. D(B   8,B   7,B   6,B   5)      0.00  0.000000   -0.00     -0.00   
    32. D(B   9,B   8,B   7,B   6)     -0.00 -0.000000    0.00      0.00   
    33. D(B  10,B   9,B   8,B   7)     -0.00 -0.000000    0.00      0.00   
    34. D(B  11,B  10,B   9,B   8)      0.00 -0.000000    0.00      0.00   
    35. D(B   0,B  11,B  10,B   9)     -0.00 -0.000000    0.00      0.00   
    36. D(B  10,B  11,B   0,B   1)     -0.00  0.000000   -0.00     -0.00   
    ----------------------------------------------------------------------------

Geometry step timings:
Preparation and reading OPT file:      0.000 s ( 1.924 %)
Internal coordinates            :      0.000 s ( 1.860 %)
B/P matrices and projection     :      0.000 s (23.797 %)
Hessian update/contruction      :      0.000 s (23.092 %)
Making the step                 :      0.000 s (16.742 %)
Converting the step to Cartesian:      0.000 s ( 2.181 %)
Storing new data                :      0.000 s ( 5.965 %)
Checking convergence            :      0.000 s ( 3.464 %)
Final printing                  :      0.000 s (20.847 %)
Total time                      :      0.002 s
                 *******************************************************
                 *** FINAL ENERGY EVALUATION AT THE STATIONARY POINT ***
                 ***               (AFTER    4 CYCLES)               ***
                 *******************************************************
---------------------------------
CARTESIAN COORDINATES (ANGSTROEM)
---------------------------------
  B     2.927704   -0.000000   -0.000000
  B     2.535466    1.463852    0.000000
  B     1.463852    2.535466    0.000000
  B    -0.000000    2.927704    0.000000
  B    -1.463852    2.535466   -0.000000
  B    -2.535466    1.463852   -0.000000
  B    -2.927703   -0.000000    0.000000
  B    -2.535466   -1.463851    0.000000
  B    -1.463852   -2.535465    0.000000
  B     0.000000   -2.927703   -0.000000
  B     1.463852   -2.535466   -0.000000
  B     2.535466   -1.463852   -0.000000

----------------------------
CARTESIAN COORDINATES (A.U.)
----------------------------
  NO LB    ZA    FRAG    MASS        X           Y           Z
   0 B   5.0000    0    10.810    5.532558   -0.000000   -0.000000
   1 B   5.0000    0    10.810    4.791336    2.766279    0.000000
   2 B   5.0000    0    10.810    2.766279    4.791336    0.000000
   3 B   5.0000    0    10.810   -0.000000    5.532558    0.000000
   4 B   5.0000    0    10.810   -2.766279    4.791336   -0.000000
   5 B   5.0000    0    10.810   -4.791336    2.766278   -0.000000
   6 B   5.0000    0    10.810   -5.532558   -0.000000    0.000000
   7 B   5.0000    0    10.810   -4.791336   -2.766278    0.000000
   8 B   5.0000    0    10.810   -2.766279   -4.791335    0.000000
   9 B   5.0000    0    10.810    0.000000   -5.532558   -0.000000
  10 B   5.0000    0    10.810    2.766279   -4.791336   -0.000000
  11 B   5.0000    0    10.810    4.791336   -2.766279   -0.000000

      -----------------------------------------------------------      
     |                   =====================                   |     
     |                           x T B                           |     
     |                   =====================                   |     
     |                         S. Grimme                         |     
     |          Mulliken Center for Theoretical Chemistry        |     
     |                    University of Bonn                     |     
      -----------------------------------------------------------      

   * xtb version 6.6.1 (unknown) compiled by 'builduser@buildhost' on 2023-08-07

   xtb is free software: you can redistribute it and/or modify it under
   the terms of the GNU Lesser General Public License as published by
   the Free Software Foundation, either version 3 of the License, or
   (at your option) any later version.
   
   xtb is distributed in the hope that it will be useful,
   but WITHOUT ANY WARRANTY; without even the implied warranty of
   MERCHANTABILITY or FITNESS FOR A PARTICULAR PURPOSE.  See the
   GNU Lesser General Public License for more details.
   
   Cite this work as:
   * C. Bannwarth, E. Caldeweyher, S. Ehlert, A. Hansen, P. Pracht,
     J. Seibert, S. Spicher, S. Grimme, WIREs Comput. Mol. Sci., 2020, 11,
     e01493. DOI: 10.1002/wcms.1493
   
   for GFN2-xTB:
   * C. Bannwarth, S. Ehlert and S. Grimme., J. Chem. Theory Comput., 2019,
     15, 1652-1671. DOI: 10.1021/acs.jctc.8b01176
   for GFN1-xTB:
   * S. Grimme, C. Bannwarth, P. Shushkov, J. Chem. Theory Comput., 2017,
     13, 1989-2009. DOI: 10.1021/acs.jctc.7b00118
   for GFN0-xTB:
   * P. Pracht, E. Caldeweyher, S. Ehlert, S. Grimme, ChemRxiv, 2019, preprint.
     DOI: 10.26434/chemrxiv.8326202.v1
   for GFN-FF:
   * S. Spicher and S. Grimme, Angew. Chem. Int. Ed., 2020, 59, 15665-15673.
     DOI: 10.1002/anie.202004239
   
   for ALPB and GBSA implicit solvation:
   * S. Ehlert, M. Stahn, S. Spicher, S. Grimme, J. Chem. Theory Comput.,
     2021, 17, 4250-4261. DOI: 10.1021/acs.jctc.1c00471
   
   for DFT-D4:
   * E. Caldeweyher, C. Bannwarth and S. Grimme, J. Chem. Phys., 2017,
     147, 034112. DOI: 10.1063/1.4993215
   * E. Caldeweyher, S. Ehlert, A. Hansen, H. Neugebauer, S. Spicher,
     C. Bannwarth and S. Grimme, J. Chem. Phys., 2019, 150, 154122.
     DOI: 10.1063/1.5090222
   * E. Caldeweyher, J.-M. Mewes, S. Ehlert and S. Grimme, Phys. Chem. Chem. Phys.
     2020, 22, 8499-8512. DOI: 10.1039/D0CP00502A
   
   for sTDA-xTB:
   * S. Grimme and C. Bannwarth, J. Chem. Phys., 2016, 145, 054103.
     DOI: 10.1063/1.4959605
   
   in the mass-spec context:
   * V. Asgeirsson, C. Bauer and S. Grimme, Chem. Sci., 2017, 8, 4879.
     DOI: 10.1039/c7sc00601b
   * J. Koopman and S. Grimme, ACS Omega 2019, 4, 12, 15120-15133.
     DOI: 10.1021/acsomega.9b02011
   
   for metadynamics refer to:
   * S. Grimme, J. Chem. Theory Comput., 2019, 155, 2847-2862
     DOI: 10.1021/acs.jctc.9b00143
   
   for SPH calculations refer to:
   * S. Spicher and S. Grimme, J. Chem. Theory Comput., 2021, 17, 1701-1714
     DOI: 10.1021/acs.jctc.0c01306
   
   with help from (in alphabetical order)
   P. Atkinson, C. Bannwarth, F. Bohle, G. Brandenburg, E. Caldeweyher
   M. Checinski, S. Dohm, S. Ehlert, S. Ehrlich, I. Gerasimov, C. Hölzer
   A. Katbashev, J. Koopman, C. Lavigne, S. Lehtola, F. März, M. Müller,
   F. Musil, H. Neugebauer, J. Pisarek, C. Plett, P. Pracht, F. Pultar,
   J. Seibert, P. Shushkov, S. Spicher, M. Stahn, M. Steiner, T. Strunk,
   J. Stückrath, T. Rose, and J. Unsleber
   
 * started run on 2026/04/17 at 12:14:56.088     

           -------------------------------------------------
          |                Calculation Setup                |
           -------------------------------------------------

          program call               : /usr/bin/xtb ring12_d1.50_m3_XTB.xyz --grad -c 0 -u 2 -P 1 --namespace ring12_d1.50_m3 --input ring12_d1.50_m3_XTB.input.tmp --acc 0.200000
          calculation namespace      : ring12_d1.50_m3
          coordinate file            : ring12_d1.50_m3_XTB.xyz
          omp threads                :                     1

   ID    Z sym.   atoms
    1    5 B      1-12

           -------------------------------------------------
          |                 G F N 2 - x T B                 |
           -------------------------------------------------

        Reference                      10.1021/acs.jctc.8b01176
      * Hamiltonian:
        H0-scaling (s, p, d)           1.850000    2.230000    2.230000
        zeta-weighting                 0.500000
      * Dispersion:
        s8                             2.700000
        a1                             0.520000
        a2                             5.000000
        s9                             5.000000
      * Repulsion:
        kExp                           1.500000    1.000000
        rExp                           1.000000
      * Coulomb:
        alpha                          2.000000
        third order                    shell-resolved
        anisotropic                    true
        a3                             3.000000
        a5                             4.000000
        cn-shift                       1.200000
        cn-exp                         4.000000
        max-rad                        5.000000

q/qsh data taken from xtbrestart
CAMM data taken from xtbrestart

          ...................................................
          :                      SETUP                      :
          :.................................................:
          :  # basis functions                  48          :
          :  # atomic orbitals                  48          :
          :  # shells                           24          :
          :  # electrons                        36          :
          :  max. iterations                   250          :
          :  Hamiltonian                  GFN2-xTB          :
          :  restarted?                       true          :
          :  GBSA solvation                  false          :
          :  PC potential                    false          :
          :  electronic temp.          300.0000000     K    :
          :  accuracy                    0.2000000          :
          :  -> integral cutoff          0.3198970E+02      :
          :  -> integral neglect         0.2000000E-08      :
          :  -> SCF convergence          0.2000000E-06 Eh   :
          :  -> wf. convergence          0.2000000E-04 e    :
          :  Broyden damping             0.4000000          :
          ...................................................

 iter      E             dE          RMSdq      gap      omega  full diag
   1    -14.4981454 -0.144981E+02  0.815E-05    0.00       0.0  T
   2    -14.4981454  0.115392E-10  0.556E-05    0.00     518.9  T
   3    -14.4981454  0.544000E-09  0.177E-04    0.00     162.8  T

   *** convergence criteria satisfied after 3 iterations ***

         #    Occupation            Energy/Eh            Energy/eV
      -------------------------------------------------------------
         1        2.0000           -0.3949819             -10.7480
       ...           ...                  ...                  ...
        13        2.0000           -0.2851409              -7.7591
        14        2.0000           -0.2819194              -7.6714
        15        1.9978           -0.2755692              -7.4986
        16        1.9978           -0.2755690              -7.4986
        17        1.5022           -0.2697479              -7.3402
        18        1.5021           -0.2697478              -7.3402
        19        0.4996           -0.2360682              -6.4237 (HOMO)
        20        0.4995           -0.2360679              -6.4237 (LUMO)
        21        0.0005           -0.2288161              -6.2264
        22        0.0005           -0.2288158              -6.2264
        23                         -0.1648249              -4.4851
        24                         -0.1648249              -4.4851
       ...                                ...                  ...
        48                          1.2258181              33.3562
      -------------------------------------------------------------
                  HL-Gap            0.0000003 Eh            0.0000 eV
             Fermi-level           -0.2529048 Eh           -6.8819 eV

 transition dipole moment (au) for excitation:          18          19
     X       Y       Z   
   0.0000  -0.0000  -0.0000  total (au/Debye):    0.000   0.000
 dE (eV)             :    0.916
 oscillator strength :  0.10186E-16

 SCC (total)                   0 d,  0 h,  0 min,  0.018 sec
 SCC setup                      ...        0 min,  0.000 sec (  1.036%)
 Dispersion                     ...        0 min,  0.000 sec (  0.561%)
 classical contributions        ...        0 min,  0.000 sec (  0.186%)
 integral evaluation            ...        0 min,  0.003 sec ( 16.398%)
 iterations                     ...        0 min,  0.004 sec ( 24.448%)
 molecular gradient             ...        0 min,  0.006 sec ( 35.766%)
 printout                       ...        0 min,  0.004 sec ( 21.488%)

         :::::::::::::::::::::::::::::::::::::::::::::::::::::
         ::                     SUMMARY                     ::
         :::::::::::::::::::::::::::::::::::::::::::::::::::::
         :: total energy             -14.219856532246 Eh    ::
         :: gradient norm              0.000003113027 Eh/a0 ::
         :: HOMO-LUMO gap              0.000008878814 eV    ::
         ::.................................................::
         :: SCC energy               -14.498145411056 Eh    ::
         :: -> isotropic ES            0.094094877844 Eh    ::
         :: -> anisotropic ES          0.002867922397 Eh    ::
         :: -> anisotropic XC         -0.039732251628 Eh    ::
         :: -> dispersion             -0.012504453712 Eh    ::
         :: repulsion energy           0.278150419262 Eh    ::
         :: add. restraining           0.000000000000 Eh    ::
         :: total charge               0.000000000000 e     ::
         :::::::::::::::::::::::::::::::::::::::::::::::::::::


Property printout bound to 'properties.out'

           -------------------------------------------------
          | TOTAL ENERGY              -14.219856532246 Eh   |
          | GRADIENT NORM               0.000003113027 Eh/α |
          | HOMO-LUMO GAP               0.000008878814 eV   |
           -------------------------------------------------

------------------------------------------------------------------------
 * finished run on 2026/04/17 at 12:14:56.118     
------------------------------------------------------------------------
 total:
 * wall-time:     0 d,  0 h,  0 min,  0.031 sec
 *  cpu-time:     0 d,  0 h,  0 min,  0.031 sec
 * ratio c/w:     0.999 speedup
 SCF:
 * wall-time:     0 d,  0 h,  0 min,  0.018 sec
 *  cpu-time:     0 d,  0 h,  0 min,  0.018 sec
 * ratio c/w:     1.000 speedup


-------------------------   --------------------
FINAL SINGLE POINT ENERGY       -14.219856532250
-------------------------   --------------------


-------------
DIPOLE MOMENT
-------------
                                X             Y             Z
Total Dipole Moment    :      0.00000       0.00000       0.00000
                        -----------------------------------------
Magnitude (a.u.)       :      0.00000
Magnitude (Debye)      :      0.00000

                                *** OPTIMIZATION RUN DONE ***


--------------------------------
SUGGESTED CITATIONS FOR THIS RUN
--------------------------------

Below you find a list of papers that are relevant to this ORCA run
We neither can nor want to force you to cite these papers, but we appreciate if you do
You receive ORCA, which is the product of decades of hard work by many enthusiastic individuals, for free
The only thing we kindly ask in return is that you cite our papers,
We deeply appreciate it, if you show your appreciation for ORCA by not just citing the generic ORCA reference.

Please note that relegating all ORCA citations to the supporting information does *not* help us.
SI sections are not indexed - citations you put there will not count into any citation statistics
But we need these citations in order to attract the funding resources that allow us to do what we are doing

Therefore, if you are a happy ORCA user, please consider citing a few of the papers listed below in the main body of your paper

In addition to the list printed below, the program has created the file ring12_d1.50_m3.bibtex that contains the list in bibtex format
You can import this file easily into all common literature databanks and citation aid programs

It goes without saying that in many instances, there are alternative algorithms to achieve similar
results as the ones you have gotten from ORCA. It is, of course, also the case that in some instances
ORCA just re-implements algorithms worked out by others. We are fully aware of that and we are also
fully appreciative of our colleagues work. Hence this citation list should not be read as indicating
that the listed papers, which are focused on our own work, are the only ones worth citing. It simply
meant to make it easier for users to cite ORCA specific papers. It is not a substitute for doing your
own literature research and citing the relevant literature in a scientifically appropriate manner.

List of essential papers. We consider these as the minimum necessary citations

  1. Bannwarth, C.; Ehlert, S.; Grimme, S.
     GFN2-xTB—An Accurate and Broadly Parametrized Self-Consistent Tight-Binding Quantum Chemical Method with Multipole Electrostatics and Density-Dependent Dispersion Contributions
     J. Chem. Theory Comput. 2019 15(3), 1652-1671
     doi.org/10.1021/acs.jctc.8b01176
  2. Neese, F.
     Software update: the ORCA program system, version 6.0
     WIRES Comput. Molec. Sci. 2025 15(1), e70019
     doi.org/10.1002/wcms.70019

List of papers to cite with high priority. The work reported in these papers was absolutely
necessary for this run to complete.
Our perspective: the developers of density functionals and basis sets usually get cited in chemistry papers
Good! But without the algorithms to do something with them, the functionals or basis sets would not do anything.
Hence, in our opinion, the algorithm design and method developments papers are equally worthy of getting cited

  1. Bannwarth, C.; Caldeweyher, E.; Ehlert, S.; Hansen, A.; Pracht, P.; Seibert, J.; Spicher, S.; Grimme, S.
     Extended tight-binding quantum chemistry methods
     WIRES Comput. Molec. Sci. 2020 11(2), e1493
     doi.org/10.1002/wcms.1493

List of suggested additional citations. These are papers that are important in the 'surrounding' of 
of this run, or papers that preceded the highly important papers. If you like your results we are grateful for a citation.

  1. Neese, F.
     The ORCA program system
     WIRES Comput. Molec. Sci. 2012 2(1), 73-78
     doi.org/10.1002/wcms.81
  2. Neese, F.
     Software update: the ORCA program system, version 4.0
     WIRES Comput. Molec. Sci. 2018 8(1), 1-6
     doi.org/10.1002/wcms.1327
  3. Neese, F.; Wennmohs, F.; Becker, U.; Riplinger, C.
     The ORCA quantum chemistry program package
     J. Chem. Phys. 2020 152(22), 224108
     doi.org/10.1063/5.0004608
  4. Neese, F.
     Software update: The ORCA program system—Version 5.0
     WIRES Comput. Molec. Sci. 2022 12(1), e1606
     doi.org/10.1002/wcms.1606

List of optional additional citations

  1. Neese, F.
     Approximate second-order SCF convergence for spin unrestricted wavefunctions
     Chem. Phys. Lett. 2000 325(1-3), 93-98
     doi.org/10.1016/s0009-2614(00)00662-x

Timings for individual modules:

Sum of individual times          ...        0.262 sec (=   0.004 min)
Geometry relaxation              ...        0.014 sec (=   0.000 min)   5.4 %
XTB module                       ...        0.248 sec (=   0.004 min)  94.6 %
                             ****ORCA TERMINATED NORMALLY****
TOTAL RUN TIME: 0 days 0 hours 0 minutes 0 seconds 396 msec
