
                                 *****************
                                 * O   R   C   A *
                                 *****************

                                            #,                                       
                                            ###                                      
                                            ####                                     
                                            #####                                    
                                            ######                                   
                                           ########,                                 
                                     ,,################,,,,,                         
                               ,,#################################,,                 
                          ,,##########################################,,             
                       ,#########################################, ''#####,          
                    ,#############################################,,   '####,        
                  ,##################################################,,,,####,       
                ,###########''''           ''''###############################       
              ,#####''   ,,,,##########,,,,          '''####'''          '####       
            ,##' ,,,,###########################,,,                        '##       
           ' ,,###''''                  '''############,,,                           
         ,,##''                                '''############,,,,        ,,,,,,###''
      ,#''                                            '''#######################'''  
     '                                                          ''''####''''         
             ,#######,   #######,   ,#######,      ##                                
            ,#'     '#,  ##    ##  ,#'     '#,    #''#        ,####,    ,#,          
            ##       ##  ##   ,#'  ##            #'  '#       #'       ,# #          
            ##       ##  #######   ##           ,######,      #####,      #          
            '#,     ,#'  ##    ##  '#,     ,#' ,#      #,     #,   #      #          
             '#######'   ##     ##  '#######'  #'      '#     '####' #    #          



                #########################################################
                #                        -***-                          #
                #          Department of theory and spectroscopy        #
                #                                                       #
                #                      Frank Neese                      #
                #                                                       #
                #     Directorship, Architecture, Infrastructure        #
                #                    SHARK, DRIVERS                     #
                #        Core code/Algorithms in most modules           #
                #                                                       #
                #        Max Planck Institute fuer Kohlenforschung      #
                #                Kaiser Wilhelm Platz 1                 #
                #                 D-45470 Muelheim/Ruhr                 #
                #                      Germany                          #
                #                                                       #
                #                  All rights reserved                  #
                #                        -***-                          #
                #########################################################


                         Program Version 6.1.1  -  RELEASE   -
                                (GIT: $487d211c$)
                          ($2025-11-21 10:33:24 +0100$)
                                                                         
                                  - NO-DMRG VERSION -                    
                                                                         


 With contributions from (in alphabetic order):
[Max-Planck-Institut fuer Kohlenforschung]                               
  Daniel Aravena         : Magnetic Suceptibility                        
  Michael Atanasov       : Ab Initio Ligand Field Theory (pilot matlab implementation)
  Alexander A. Auer      : GIAO ZORA, VPT2 properties, NMR spectrum      
  Ute Becker             : All parallelization in ORCA, NUMFREQ, NUMCALC 
  Giovanni Bistoni       : ED, misc. LED, open-shell LED, HFLD           
  Dmytro Bykov           : pre 5.0 version of the SCF Hessian            
  Marcos Casanova-Páez   : Triplet and SCS-CIS(D). UHF-(DLPNO)-IP/EA/STEOM-CCSD. UHF-CVS-IP/STEOM-CCSD   
  Vijay G. Chilkuri      : MRCI spin determinant printing, contributions to CSF-ICE 
  Pauline Colinet        : FMM embedding                                 
  Dipayan Datta          : RHF DLPNO-CCSD density                        
  Achintya Kumar Dutta   : EOM-CC, STEOM-CC                              
  Nicolas Foglia         : Exact transition moments, OPA infrastructure, MCD improvements    
  Dmitry Ganyushin       : Spin-Orbit,Spin-Spin,Magnetic field MRCI      
  Miquel Garcia-Rates    : C-PCM and meta-GGA Hessian, CCSD/C-PCM, Gaussian charge scheme 
  Tiago L. C. Gouveia    : GS-ROHF, GS-ROCIS                             
  Yang Guo               : DLPNO-NEVPT2, F12-NEVPT2, CIM, IAO-localization        
  Andreas Hansen         : Spin unrestricted coupled pair/coupled cluster methods 
  Ingolf Harden          : AUTO-CI MPn and infrastructure                
  Benjamin Helmich-Paris : MC-RPA, TRAH-(SCF,CASSCF), AVAS, COSX integrals, SCF dyn. polar., MC-PDFT, srDFT 
  Lee Huntington         : MR-EOM, pCC                                   
  Robert Izsak           : Overlap fitted RIJCOSX, COSX-SCS-MP3, EOM     
  Riya Kayal             : Wick's Theorem for AUTO-CI, AUTO-CI UHF-CCSDT 
  Emily Kempfer          : AUTO-CI RHF CISDT and CCSDT, approximate NEVPT4
  Christian Kollmar      : KDIIS, OOCD, Brueckner-CCSD(T), CCSD density, CASPT2, CASPT2-K, improved NEVPT2 
  Axel Koslowski         : Symmetry handling                             
  Simone Kossmann        : meta-GGA functionals, TD-DFT gradient, OOMP2, (MP2 Hessian; deprecated post 5.0) 
  Lucas Lang             : DCDCAS, Hyperfine gauge corrections, ICE-SOC+SSC
  Marvin Lechner         : AUTO-CI (C++ implementation), FIC-MRCC        
  Spencer Leger          : CASSCF response                               
  Dagmar Lenk            : GEPOL surface, SMD, ORCA-2-JSON               
  Dimitrios Liakos       : Extrapolation schemes; Compound Job, Property file
  Dimitrios Manganas     : Further ROCIS development; embedding schemes. LFT, Crystal Embedding 
  Dimitrios Pantazis     : SARC Basis sets                               
  Anastasios Papadopoulos: AUTO-CI, single reference methods and gradients 
  Taras Petrenko         : pre 6.0 DFT Hessian and TD-DFT gradient,  ECA, NRVS 
  Petra Pikulova         : Analytic Raman intensities                    
  Peter Pinski           : DLPNO-MP2, DLPNO-MP2 Gradient                 
  Shashank Vittal Rao    : ES-AILFT, MagRelax                            
  Christoph Reimann      : Effective Core Potentials                     
  Marius Retegan         : Local ZFS, SOC                                
  Christoph Riplinger    : Optimizer, TS searches, QM/MM, DLPNO-CCSD(T), (RO)-DLPNO pert. Triples 
  Michael Roemelt        : Original ROCIS implementation, recursive CI coupling coefficients
  Masaaki Saitow         : Open-shell DLPNO-CCSD energy and density      
  Barbara Sandhoefer     : DKH picture change effects                    
  Yorick L. A. Schmerwitz: GMF and freeze-and-release deltaSCF, NEB S-IDPP initial path                    
  Kantharuban Sivalingam : CASSCF convergence/infrastructure, NEVPT2, NEVPT3, NEVPT4(SD), FIC-MRCI and CEPA variants
  Bernardo de Souza      : ESD, SOC TD-DFT                               
  Georgi L. Stoychev     : AutoAux, RI-MP2 NMR, DLPNO-MP2 response, X2C  
  Van Anh Tran           : RI-MP2 g-tensors                              
  Willem Van den Heuvel  : Paramagnetic NMR                              
  Zikuan Wang            : NOTCH, Electric field optimization            
  Frank Wennmohs         : Technical directorship and infrastructure     
  Hang Xu                : AUTO-CI-Response properties                   
                                                                         
[FACCTs GmbH]                                                            
  Markus Bursch, Nicolas Foglia, Miquel Garcia-Rates, Ingolf Harden, Hagen Neugebauer, Anastasios Papadopoulos, 
  Christoph Riplinger, Bernardo de Souza, Georgi L. Stoychev                                                    
                                                                 
  APM, various basis sets, CI-OPT, improved COSX, DLPNO-Multilevel,           
  DOCKER, DRACO, updates on ESD, Fragmentator, GOAT, IRC, LR-CPCM, L-BFGS, MBIS, meta-GGA TD-DFT gradient, ML-optimized integration grids, 
  MM, NACMEs, nearIR, NEB, NEB-TS, NL-DFT gradient (VV10), 2- and 3-layer-ONIOM, interface openCOSMO-RS, QMMM,   
  Crystal-QMMM, RESP, rigid body optimization, SF, symmetry and pop. for TD-DFT, various functionals, SOLVATOR                                   
                                                                         
[Other institutions]                                                     
  V. Asgeirsson          : NEB                                           
  Christoph Bannwarth    : sTDA-DFT, sTD-DFT, PBEh-3c, B97-3c, D3        
  Giovanni Bistoni       : ETS/NOCV, ADLD/ADEX, COVALED                  
  Martin Brehm           : Molecular dynamics                            
  Ronald Cardenas        : ETS/NOCV                                      
  Martina Colucci        : COVALED                                       
  Sebastian Ehlert       : rSCAN, r2SCAN, r2SCAN-3c, D4, dhf basis sets  
  Marvin Friede          : D4 for Fr, Ra, Ac-Lr                          
  Lars Goerigk           : TD-DFT with DH, B97 family of functionals     
  Stefan Grimme          : VdW corrections, initial TS optimization, DFT functionals, gCP, sTDA/sTD-DF 
  Waldemar Hujo          : DFT-NL                                        
  H. Jonsson             : NEB                                           
  Holger Kruse           : gCP                                           
  Marcel Mueller         : wB97X-3c, vDZP basis set                      
  Hagen Neugebauer       : wr2SCAN, Native XTB                           
  Gianluca Regni         : ADLD/ADEX                                     
  Tobias Risthaus        : pre 6.0 range-separated hybrid DFT and stability analysis
  Lukas Wittmann         : regularized MP2, r2SCAN double-hybrids, wr2SCAN        
                                                                         
We gratefully acknowledge several colleagues who have allowed us to      
interface, adapt or use parts of their codes:                            
  Ed Valeev, F. Pavosevic, A. Kumar             : LibInt (2-el integral package), F12 methods 
  Garnet Chan, S. Sharma, J. Yang, R. Olivares  : DMRG                   
  Ulf Ekstrom                                   : XCFun DFT Library      
  Mihaly Kallay                                 : mrcc  (arbitrary order and MRCC methods)
  Frank Weinhold                                : gennbo (NPA and NBO analysis)           
  Simon Mueller                                 : openCOSMO-RS                            
  Christopher J. Cramer and Donald G. Truhlar   : smd solvation model                     
  S Lehtola, MJT Oliveira, MAL Marques          : LibXC Library                           
  Liviu Ungur et al                             : ANISO software                          


 Your calculation uses the libint2 library for the computation of 2-el integrals
 For citations please refer to: http://libint.valeyev.net

 Your ORCA version has been built with support for libXC version: 7.0.0
 For citations please refer to: https://libxc.gitlab.io

 This ORCA versions uses:
   CBLAS   interface :  Fast vector & matrix operations
   LAPACKE interface :  Fast linear algebra routines
   SCALAPACK package :  Parallel linear algebra routines
   Shared memory     :  Shared parallel matrices
   BLAS/LAPACK       :  OpenBLAS 0.3.29  USE64BITINT DYNAMIC_ARCH NO_AFFINITY Zen SINGLE_THREADED
        Core in use  :  Zen
   Copyright (c) 2011-2014, The OpenBLAS Project


  ***********************************
  * Starting time: Fri Apr 17 12:14:57 2026
  * Host name:     vmi3233575
  * Process ID:    341065
  * Working dir.:  /root/orca_b12_vps_pack/jobs/01_xtb/mult_3
  ***********************************

NOTE: MaxCore=500 MB was set to SCF,MP2,MDCI,CIPSI,MRCI,RASCI and CIS
      => If you want to overwrite this, your respective input block should be placed after the MaxCore statement


***************************************
The coordinates will be read from file: ../../../starts/ring12_d2.10.xyz
***************************************


Your calculation utilizes the semiempirical GFN2-xTB method
Please cite in your paper:
Bannwarth, C.; Ehlert S.; Grimme, S. J. Chem. Theory Comput. 2019, 15, 1652.
   

================================================================================

================================================================================
                                        WARNINGS
                       Please study these warnings very carefully!
================================================================================


WARNING: Geometry Optimization
  ===> : Switching off AutoStart
         For restart on a previous wavefunction, please use MOREAD

WARNING: Found dipole moment calculation with XTB calculation
  ===> : Switching off dipole moment calculation

Environment variable XTBEXE for xtb has been set!

================================================================================
                                       INPUT FILE
================================================================================
NAME = ring12_d2.10_m3.inp
|  1> ! GFN2-xTB TightSCF TightOpt
|  2> 
|  3> %pal
|  4>   nprocs 1
|  5> end
|  6> 
|  7> %maxcore 500
|  8> 
|  9> * xyzfile 0 3 ../../../starts/ring12_d2.10.xyz
| 10> 
| 11>                          ****END OF INPUT****
================================================================================

                       *****************************
                       * Geometry Optimization Run *
                       *****************************

Geometry optimization settings:
Update method            Update   .... BFGS
Choice of coordinates    CoordSys .... (2022) Redundant Internals
Initial Hessian          InHess   .... Almloef's Model
Max. no of cycles        MaxIter  .... 50

Convergence Tolerances:
Energy Change            TolE     ....  1.0000e-06 Eh
Max. Gradient            TolMAXG  ....  1.0000e-04 Eh/bohr
RMS Gradient             TolRMSG  ....  3.0000e-05 Eh/bohr
Max. Displacement        TolMAXD  ....  1.0000e-03 bohr
RMS Displacement         TolRMSD  ....  6.0000e-04 bohr
Strict Convergence                .... False

------------------------------------------------------------------------------
                        ORCA OPTIMIZATION COORDINATE SETUP
------------------------------------------------------------------------------

The optimization will be done in redundant internal coordinates (2022)
Making redundant internal coordinates   ...  (2022 redundants) done
Evaluating the initial hessian          ...  (Almloef) done
Evaluating the coordinates              ...  done
Calculating the B-matrix                .... done
Calculating the G-matrix                .... done
The number of degrees of freedom        ....   36

    -----------------------------------------------------------------
                    Redundant Internal Coordinates


    -----------------------------------------------------------------
         Definition                    Initial Value    Approx d2E/dq
    -----------------------------------------------------------------
      1. B(B   1,B   0)                  2.1000         0.061747   
      2. B(B   2,B   1)                  2.1000         0.061747   
      3. B(B   3,B   2)                  2.1000         0.061747   
      4. B(B   4,B   3)                  2.1000         0.061747   
      5. B(B   5,B   4)                  2.1000         0.061747   
      6. B(B   6,B   5)                  2.1000         0.061747   
      7. B(B   7,B   6)                  2.1000         0.061747   
      8. B(B   8,B   7)                  2.1000         0.061747   
      9. B(B   9,B   8)                  2.1000         0.061747   
     10. B(B  10,B   9)                  2.1000         0.061747   
     11. B(B  11,B  10)                  2.1000         0.061747   
     12. B(B  11,B   0)                  2.1000         0.061747   
     13. A(B   1,B   0,B  11)          150.0000         0.215735   
     14. A(B   0,B   1,B   2)          150.0000         0.215735   
     15. A(B   1,B   2,B   3)          150.0000         0.215735   
     16. A(B   2,B   3,B   4)          150.0000         0.215735   
     17. A(B   3,B   4,B   5)          150.0000         0.215735   
     18. A(B   4,B   5,B   6)          150.0000         0.215735   
     19. A(B   5,B   6,B   7)          150.0000         0.215735   
     20. A(B   6,B   7,B   8)          150.0000         0.215735   
     21. A(B   7,B   8,B   9)          150.0000         0.215735   
     22. A(B   8,B   9,B  10)          150.0000         0.215735   
     23. A(B   9,B  10,B  11)          150.0000         0.215735   
     24. A(B   0,B  11,B  10)          150.0000         0.215735   
     25. D(B   2,B   1,B   0,B  11)      0.0000         0.010000   
     26. D(B   3,B   2,B   1,B   0)      0.0000         0.010000   
     27. D(B   4,B   3,B   2,B   1)      0.0000         0.010000   
     28. D(B   5,B   4,B   3,B   2)      0.0000         0.010000   
     29. D(B   6,B   5,B   4,B   3)      0.0000         0.010000   
     30. D(B   7,B   6,B   5,B   4)      0.0000         0.010000   
     31. D(B   8,B   7,B   6,B   5)      0.0000         0.010000   
     32. D(B   9,B   8,B   7,B   6)      0.0000         0.010000   
     33. D(B  10,B   9,B   8,B   7)      0.0000         0.010000   
     34. D(B  11,B  10,B   9,B   8)      0.0000         0.010000   
     35. D(B   0,B  11,B  10,B   9)      0.0000         0.010000   
     36. D(B  10,B  11,B   0,B   1)      0.0000         0.010000   
    -----------------------------------------------------------------

Number of atoms                         .... 12
Number of degrees of freedom            .... 36


         *************************************************************
         *                GEOMETRY OPTIMIZATION CYCLE   1            *
         *************************************************************
---------------------------------
CARTESIAN COORDINATES (ANGSTROEM)
---------------------------------
  B     4.056888   -0.000000    0.000000
  B     3.513368    2.028444    0.000000
  B     2.028444    3.513368    0.000000
  B     0.000000    4.056888    0.000000
  B    -2.028444    3.513368    0.000000
  B    -3.513368    2.028444    0.000000
  B    -4.056888    0.000000    0.000000
  B    -3.513368   -2.028444    0.000000
  B    -2.028444   -3.513368    0.000000
  B    -0.000000   -4.056888    0.000000
  B     2.028444   -3.513368    0.000000
  B     3.513368   -2.028444    0.000000

----------------------------
CARTESIAN COORDINATES (A.U.)
----------------------------
  NO LB    ZA    FRAG    MASS        X           Y           Z
   0 B   5.0000    0    10.810    7.666408   -0.000000    0.000000
   1 B   5.0000    0    10.810    6.639304    3.833204    0.000000
   2 B   5.0000    0    10.810    3.833204    6.639304    0.000000
   3 B   5.0000    0    10.810    0.000000    7.666408    0.000000
   4 B   5.0000    0    10.810   -3.833204    6.639304    0.000000
   5 B   5.0000    0    10.810   -6.639304    3.833204    0.000000
   6 B   5.0000    0    10.810   -7.666408    0.000000    0.000000
   7 B   5.0000    0    10.810   -6.639304   -3.833204    0.000000
   8 B   5.0000    0    10.810   -3.833204   -6.639304    0.000000
   9 B   5.0000    0    10.810   -0.000000   -7.666408    0.000000
  10 B   5.0000    0    10.810    3.833204   -6.639304    0.000000
  11 B   5.0000    0    10.810    6.639304   -3.833204    0.000000

      -----------------------------------------------------------      
     |                   =====================                   |     
     |                           x T B                           |     
     |                   =====================                   |     
     |                         S. Grimme                         |     
     |          Mulliken Center for Theoretical Chemistry        |     
     |                    University of Bonn                     |     
      -----------------------------------------------------------      

   * xtb version 6.6.1 (unknown) compiled by 'builduser@buildhost' on 2023-08-07

   xtb is free software: you can redistribute it and/or modify it under
   the terms of the GNU Lesser General Public License as published by
   the Free Software Foundation, either version 3 of the License, or
   (at your option) any later version.
   
   xtb is distributed in the hope that it will be useful,
   but WITHOUT ANY WARRANTY; without even the implied warranty of
   MERCHANTABILITY or FITNESS FOR A PARTICULAR PURPOSE.  See the
   GNU Lesser General Public License for more details.
   
   Cite this work as:
   * C. Bannwarth, E. Caldeweyher, S. Ehlert, A. Hansen, P. Pracht,
     J. Seibert, S. Spicher, S. Grimme, WIREs Comput. Mol. Sci., 2020, 11,
     e01493. DOI: 10.1002/wcms.1493
   
   for GFN2-xTB:
   * C. Bannwarth, S. Ehlert and S. Grimme., J. Chem. Theory Comput., 2019,
     15, 1652-1671. DOI: 10.1021/acs.jctc.8b01176
   for GFN1-xTB:
   * S. Grimme, C. Bannwarth, P. Shushkov, J. Chem. Theory Comput., 2017,
     13, 1989-2009. DOI: 10.1021/acs.jctc.7b00118
   for GFN0-xTB:
   * P. Pracht, E. Caldeweyher, S. Ehlert, S. Grimme, ChemRxiv, 2019, preprint.
     DOI: 10.26434/chemrxiv.8326202.v1
   for GFN-FF:
   * S. Spicher and S. Grimme, Angew. Chem. Int. Ed., 2020, 59, 15665-15673.
     DOI: 10.1002/anie.202004239
   
   for ALPB and GBSA implicit solvation:
   * S. Ehlert, M. Stahn, S. Spicher, S. Grimme, J. Chem. Theory Comput.,
     2021, 17, 4250-4261. DOI: 10.1021/acs.jctc.1c00471
   
   for DFT-D4:
   * E. Caldeweyher, C. Bannwarth and S. Grimme, J. Chem. Phys., 2017,
     147, 034112. DOI: 10.1063/1.4993215
   * E. Caldeweyher, S. Ehlert, A. Hansen, H. Neugebauer, S. Spicher,
     C. Bannwarth and S. Grimme, J. Chem. Phys., 2019, 150, 154122.
     DOI: 10.1063/1.5090222
   * E. Caldeweyher, J.-M. Mewes, S. Ehlert and S. Grimme, Phys. Chem. Chem. Phys.
     2020, 22, 8499-8512. DOI: 10.1039/D0CP00502A
   
   for sTDA-xTB:
   * S. Grimme and C. Bannwarth, J. Chem. Phys., 2016, 145, 054103.
     DOI: 10.1063/1.4959605
   
   in the mass-spec context:
   * V. Asgeirsson, C. Bauer and S. Grimme, Chem. Sci., 2017, 8, 4879.
     DOI: 10.1039/c7sc00601b
   * J. Koopman and S. Grimme, ACS Omega 2019, 4, 12, 15120-15133.
     DOI: 10.1021/acsomega.9b02011
   
   for metadynamics refer to:
   * S. Grimme, J. Chem. Theory Comput., 2019, 155, 2847-2862
     DOI: 10.1021/acs.jctc.9b00143
   
   for SPH calculations refer to:
   * S. Spicher and S. Grimme, J. Chem. Theory Comput., 2021, 17, 1701-1714
     DOI: 10.1021/acs.jctc.0c01306
   
   with help from (in alphabetical order)
   P. Atkinson, C. Bannwarth, F. Bohle, G. Brandenburg, E. Caldeweyher
   M. Checinski, S. Dohm, S. Ehlert, S. Ehrlich, I. Gerasimov, C. Hölzer
   A. Katbashev, J. Koopman, C. Lavigne, S. Lehtola, F. März, M. Müller,
   F. Musil, H. Neugebauer, J. Pisarek, C. Plett, P. Pracht, F. Pultar,
   J. Seibert, P. Shushkov, S. Spicher, M. Stahn, M. Steiner, T. Strunk,
   J. Stückrath, T. Rose, and J. Unsleber
   
 * started run on 2026/04/17 at 12:14:57.938     

           -------------------------------------------------
          |                Calculation Setup                |
           -------------------------------------------------

          program call               : /usr/bin/xtb ring12_d2.10_m3_XTB.xyz --grad -c 0 -u 2 -P 1 --namespace ring12_d2.10_m3 --input ring12_d2.10_m3_XTB.input.tmp --acc 0.200000
          calculation namespace      : ring12_d2.10_m3
          coordinate file            : ring12_d2.10_m3_XTB.xyz
          omp threads                :                     1

   ID    Z sym.   atoms
    1    5 B      1-12

molecular fragmentation (1/2 indicates fragments):
112222222222
# atoms in fragment 1/2:     2    10
 fragment masses (1/2) :       21.62      108.11
CMA distance (Bohr)    :   8.886
constraining FC (au)   :  0.0500

           -------------------------------------------------
          |                 G F N 2 - x T B                 |
           -------------------------------------------------

        Reference                      10.1021/acs.jctc.8b01176
      * Hamiltonian:
        H0-scaling (s, p, d)           1.850000    2.230000    2.230000
        zeta-weighting                 0.500000
      * Dispersion:
        s8                             2.700000
        a1                             0.520000
        a2                             5.000000
        s9                             5.000000
      * Repulsion:
        kExp                           1.500000    1.000000
        rExp                           1.000000
      * Coulomb:
        alpha                          2.000000
        third order                    shell-resolved
        anisotropic                    true
        a3                             3.000000
        a5                             4.000000
        cn-shift                       1.200000
        cn-exp                         4.000000
        max-rad                        5.000000


          ...................................................
          :                      SETUP                      :
          :.................................................:
          :  # basis functions                  48          :
          :  # atomic orbitals                  48          :
          :  # shells                           24          :
          :  # electrons                        36          :
          :  max. iterations                   250          :
          :  Hamiltonian                  GFN2-xTB          :
          :  restarted?                      false          :
          :  GBSA solvation                  false          :
          :  PC potential                    false          :
          :  electronic temp.          300.0000000     K    :
          :  accuracy                    0.2000000          :
          :  -> integral cutoff          0.3198970E+02      :
          :  -> integral neglect         0.2000000E-08      :
          :  -> SCF convergence          0.2000000E-06 Eh   :
          :  -> wf. convergence          0.2000000E-04 e    :
          :  Broyden damping             0.4000000          :
          ...................................................

 iter      E             dE          RMSdq      gap      omega  full diag
   1    -13.1755511 -0.131756E+02  0.328E+01    0.00       0.0  T
   2    -13.1759178 -0.366704E-03  0.198E+01    0.00       1.0  T
   3    -13.1816944 -0.577660E-02  0.157E+00    0.00       1.0  T
   4    -13.1817324 -0.379427E-04  0.136E+00    0.00       1.0  T
   5    -13.1818548 -0.122437E-03  0.421E-01    0.00       1.0  T
   6    -13.1817441  0.110674E-03  0.115E-01    0.00       1.0  T
   7    -13.1811645  0.579664E-03  0.198E-01    0.01       1.0  T
   8    -13.1818622 -0.697681E-03  0.157E-02    0.00       1.8  T
   9    -13.1818622  0.201719E-08  0.249E-03    0.00      11.6  T
  10    -13.1818618  0.407012E-06  0.403E-03    0.00       7.2  T
  11    -13.1818622 -0.421551E-06  0.658E-04    0.00      43.9  T
  12    -13.1818622  0.111238E-08  0.635E-04    0.00      45.5  T
  13    -13.1818622 -0.115133E-07  0.896E-05    0.00     322.1  T
  14    -13.1818622 -0.307132E-10  0.782E-05    0.00     369.1  T

   *** convergence criteria satisfied after 14 iterations ***

         #    Occupation            Energy/Eh            Energy/eV
      -------------------------------------------------------------
         1        2.0000           -0.3577921              -9.7360
       ...           ...                  ...                  ...
        13        1.9996           -0.2409833              -6.5575
        14        1.9993           -0.2404120              -6.5419
        15        1.7795           -0.2347067              -6.3867
        16        1.7795           -0.2347067              -6.3867
        17        1.7211           -0.2344097              -6.3786
        18        1.7211           -0.2344097              -6.3786
        19        0.2741           -0.2165427              -5.8924 (HOMO)
        20        0.2741           -0.2165425              -5.8924 (LUMO)
        21        0.2259           -0.2162978              -5.8858
        22        0.2259           -0.2162977              -5.8858
        23                         -0.1895914              -5.1590
        24                         -0.1895914              -5.1590
       ...                                ...                  ...
        48                          0.1410717               3.8388
      -------------------------------------------------------------
                  HL-Gap            0.0000001 Eh            0.0000 eV
             Fermi-level           -0.2254876 Eh           -6.1358 eV

 transition dipole moment (au) for excitation:          18          19
     X       Y       Z   
   2.6041  -2.9663   0.0000  total (au/Debye):    3.947  10.033
 dE (eV)             :    0.486
 oscillator strength :  0.26245E+00

 SCC (total)                   0 d,  0 h,  0 min,  0.021 sec
 SCC setup                      ...        0 min,  0.000 sec (  0.609%)
 Dispersion                     ...        0 min,  0.000 sec (  0.466%)
 classical contributions        ...        0 min,  0.000 sec (  0.131%)
 integral evaluation            ...        0 min,  0.002 sec (  8.951%)
 iterations                     ...        0 min,  0.013 sec ( 59.274%)
 molecular gradient             ...        0 min,  0.004 sec ( 19.721%)
 printout                       ...        0 min,  0.002 sec ( 10.760%)

         :::::::::::::::::::::::::::::::::::::::::::::::::::::
         ::                     SUMMARY                     ::
         :::::::::::::::::::::::::::::::::::::::::::::::::::::
         :: total energy             -13.178719263564 Eh    ::
         :: gradient norm              0.175325864476 Eh/a0 ::
         :: HOMO-LUMO gap              0.000003896481 eV    ::
         ::.................................................::
         :: SCC energy               -13.181862188736 Eh    ::
         :: -> isotropic ES            0.082905110544 Eh    ::
         :: -> anisotropic ES          0.005063290789 Eh    ::
         :: -> anisotropic XC         -0.078623367518 Eh    ::
         :: -> dispersion             -0.011619225652 Eh    ::
         :: repulsion energy           0.003002319160 Eh    ::
         :: add. restraining           0.000000000000 Eh    ::
         :: total charge              -0.000000000000 e     ::
         :::::::::::::::::::::::::::::::::::::::::::::::::::::


Property printout bound to 'properties.out'

           -------------------------------------------------
          | TOTAL ENERGY              -13.178719263564 Eh   |
          | GRADIENT NORM               0.175325864476 Eh/α |
          | HOMO-LUMO GAP               0.000003896481 eV   |
           -------------------------------------------------

------------------------------------------------------------------------
 * finished run on 2026/04/17 at 12:14:57.970     
------------------------------------------------------------------------
 total:
 * wall-time:     0 d,  0 h,  0 min,  0.032 sec
 *  cpu-time:     0 d,  0 h,  0 min,  0.032 sec
 * ratio c/w:     0.999 speedup
 SCF:
 * wall-time:     0 d,  0 h,  0 min,  0.021 sec
 *  cpu-time:     0 d,  0 h,  0 min,  0.021 sec
 * ratio c/w:     1.000 speedup


-------------------------   --------------------
FINAL SINGLE POINT ENERGY       -13.178719263560
-------------------------   --------------------


-------------
DIPOLE MOMENT
-------------
                                X             Y             Z
Total Dipole Moment    :      0.00000      -0.00000       0.00000
                        -----------------------------------------
Magnitude (a.u.)       :      0.00000
Magnitude (Debye)      :      0.00000


------------------
CARTESIAN GRADIENT
------------------

   1   B   :    0.050612265    0.000000165    0.000000000
   2   B   :    0.043831209    0.025306441   -0.000000000
   3   B   :    0.025306541    0.043831168    0.000000000
   4   B   :    0.000000050    0.050612301   -0.000000000
   5   B   :   -0.025306545    0.043831196   -0.000000000
   6   B   :   -0.043831260    0.025306382    0.000000000
   7   B   :   -0.050612247    0.000000135    0.000000000
   8   B   :   -0.043831293   -0.025306435   -0.000000000
   9   B   :   -0.025306324   -0.043831319    0.000000000
  10   B   :    0.000000027   -0.050612226   -0.000000000
  11   B   :    0.025306303   -0.043831323    0.000000000
  12   B   :    0.043831273   -0.025306485   -0.000000000

Difference to translation invariance:
           :    0.0000000000    0.0000000000    0.0000000000

Difference to rotation invariance:
           :    0.0000000000   -0.0000000000    0.0000000000

Norm of the Cartesian gradient     ...    0.1753258645
RMS gradient                       ...    0.0292209774
MAX gradient                       ...    0.0506123009
------------------------------------------------------------------------------
                         ORCA GEOMETRY RELAXATION STEP
------------------------------------------------------------------------------

Reading the OPT-File                    .... done
Getting information on internals        .... done
Copying old internal coords+grads       .... done
Making the new internal coordinates     .... (2022 redundants) done
Validating the new internal coordinates .... (2022 redundants) done
Calculating the B-matrix                .... done
Calculating the G,G- and P matrices     .... done
Transforming gradient to internals      .... done
Projecting the internal gradient        .... done
Number of atoms                         ....  12
Number of internal coordinates          ....  36
Current Energy                          ....   -13.178719264 Eh
Current gradient norm                   ....     0.175325864 Eh/bohr
Maximum allowed component of the step   ....  0.300
Current trust radius                    ....  0.300
Evaluating the initial hessian          ....  (Almloef) done
Projecting the Hessian                  .... done
Forming the augmented Hessian           .... done
Diagonalizing the augmented Hessian     .... done
Last element of RFO vector              ....  0.738503625
Lowest eigenvalues of augmented Hessian:
 -0.309234377  0.010000000  0.010000000  0.010000000  0.010000000
Length of the computed step             ....  0.912994172
Warning: the length of the step is outside the trust region - taking restricted step instead
The input lambda is                     ....     0.009000
   iter:   5  x=   -0.325972  g=   12.576659 f(x)=     1.565402
   iter:  10  x=   -1.066093  g=    0.172769 f(x)=     0.004952
The output lambda is                    ....    -1.067265 (14 iterations)
The final length of the internal step   ....  0.300000000
Converting the step to Cartesian space:
 Initial RMS(Int)=    0.0500000000
Transforming coordinates:
 Iter   0:  RMS(Cart)=    0.0965925826 RMS(Int)=    0.0500000000
done
Storing new coordinates                 .... done

                                .--------------------.
          ----------------------|Geometry convergence|-------------------------
          Item                value                   Tolerance       Converged
          ---------------------------------------------------------------------
          RMS gradient        0.0564505935            0.0000300000      NO
          MAX gradient        0.0977755339            0.0001000000      NO
          RMS step            0.0500000000            0.0006000000      NO
          MAX step            0.0866027510            0.0010000000      NO
          -------------------------------------------------------------------------
          ........................................................
          Max(Bonds)      0.0458      Max(Angles)    0.00
          Max(Dihed)        0.00      Max(Improp)    0.00
          ---------------------------------------------------------------------

The optimization has not yet converged - more geometry cycles are needed


    ---------------------------------------------------------------------------
                         Redundant Internal Coordinates
                            (Angstroem and degrees)

        Definition                    Value    dE/dq     Step     New-Value
    ----------------------------------------------------------------------------
     1. B(B   1,B   0)                2.1000  0.097775 -0.0458    2.0542   
     2. B(B   2,B   1)                2.1000  0.097775 -0.0458    2.0542   
     3. B(B   3,B   2)                2.1000  0.097775 -0.0458    2.0542   
     4. B(B   4,B   3)                2.1000  0.097776 -0.0458    2.0542   
     5. B(B   5,B   4)                2.1000  0.097775 -0.0458    2.0542   
     6. B(B   6,B   5)                2.1000  0.097775 -0.0458    2.0542   
     7. B(B   7,B   6)                2.1000  0.097775 -0.0458    2.0542   
     8. B(B   8,B   7)                2.1000  0.097775 -0.0458    2.0542   
     9. B(B   9,B   8)                2.1000  0.097775 -0.0458    2.0542   
    10. B(B  10,B   9)                2.1000  0.097775 -0.0458    2.0542   
    11. B(B  11,B  10)                2.1000  0.097775 -0.0458    2.0542   
    12. B(B  11,B   0)                2.1000  0.097776 -0.0458    2.0542   
    13. A(B   1,B   0,B  11)          150.00  0.000000   -0.00    150.00   
    14. A(B   0,B   1,B   2)          150.00 -0.000000    0.00    150.00   
    15. A(B   1,B   2,B   3)          150.00 -0.000000    0.00    150.00   
    16. A(B   2,B   3,B   4)          150.00  0.000000   -0.00    150.00   
    17. A(B   3,B   4,B   5)          150.00 -0.000000    0.00    150.00   
    18. A(B   4,B   5,B   6)          150.00 -0.000000    0.00    150.00   
    19. A(B   5,B   6,B   7)          150.00  0.000000   -0.00    150.00   
    20. A(B   6,B   7,B   8)          150.00 -0.000000    0.00    150.00   
    21. A(B   7,B   8,B   9)          150.00 -0.000000    0.00    150.00   
    22. A(B   8,B   9,B  10)          150.00  0.000000   -0.00    150.00   
    23. A(B   9,B  10,B  11)          150.00 -0.000000    0.00    150.00   
    24. A(B   0,B  11,B  10)          150.00 -0.000000    0.00    150.00   
    25. D(B   2,B   1,B   0,B  11)      0.00  0.000000   -0.00     -0.00   
    26. D(B   3,B   2,B   1,B   0)      0.00  0.000000    0.00      0.00   
    27. D(B   4,B   3,B   2,B   1)      0.00 -0.000000   -0.00     -0.00   
    28. D(B   5,B   4,B   3,B   2)      0.00 -0.000000    0.00      0.00   
    29. D(B   6,B   5,B   4,B   3)      0.00  0.000000   -0.00     -0.00   
    30. D(B   7,B   6,B   5,B   4)      0.00  0.000000   -0.00     -0.00   
    31. D(B   8,B   7,B   6,B   5)      0.00  0.000000    0.00      0.00   
    32. D(B   9,B   8,B   7,B   6)      0.00  0.000000    0.00      0.00   
    33. D(B  10,B   9,B   8,B   7)      0.00 -0.000000   -0.00     -0.00   
    34. D(B  11,B  10,B   9,B   8)      0.00 -0.000000    0.00      0.00   
    35. D(B   0,B  11,B  10,B   9)      0.00 -0.000000   -0.00     -0.00   
    36. D(B  10,B  11,B   0,B   1)      0.00  0.000000    0.00      0.00   
    ----------------------------------------------------------------------------

Geometry step timings:
Preparation and reading OPT file:      0.000 s ( 2.203 %)
Internal coordinates            :      0.000 s ( 1.636 %)
B/P matrices and projection     :      0.000 s (20.705 %)
Hessian update/contruction      :      0.000 s (15.481 %)
Making the step                 :      0.000 s (23.096 %)
Converting the step to Cartesian:      0.000 s ( 2.391 %)
Storing new data                :      0.000 s ( 2.203 %)
Checking convergence            :      0.000 s ( 2.895 %)
Final printing                  :      0.000 s (29.201 %)
Total time                      :      0.002 s

Time for energy+gradient        :      0.046 s
Time for complete geometry iter :      0.049 s

         *************************************************************
         *                GEOMETRY OPTIMIZATION CYCLE   2            *
         *************************************************************
---------------------------------
CARTESIAN COORDINATES (ANGSTROEM)
---------------------------------
  B     3.968355   -0.000000   -0.000000
  B     3.436697    1.984178    0.000000
  B     1.984178    3.436697   -0.000000
  B    -0.000000    3.968355    0.000000
  B    -1.984178    3.436697   -0.000000
  B    -3.436697    1.984178   -0.000000
  B    -3.968355   -0.000000    0.000000
  B    -3.436697   -1.984178    0.000000
  B    -1.984178   -3.436697    0.000000
  B    -0.000000   -3.968355    0.000000
  B     1.984178   -3.436697   -0.000000
  B     3.436697   -1.984178    0.000000

----------------------------
CARTESIAN COORDINATES (A.U.)
----------------------------
  NO LB    ZA    FRAG    MASS        X           Y           Z
   0 B   5.0000    0    10.810    7.499105   -0.000000   -0.000000
   1 B   5.0000    0    10.810    6.494415    3.749552    0.000000
   2 B   5.0000    0    10.810    3.749552    6.494415   -0.000000
   3 B   5.0000    0    10.810   -0.000000    7.499105    0.000000
   4 B   5.0000    0    10.810   -3.749552    6.494415   -0.000000
   5 B   5.0000    0    10.810   -6.494415    3.749552   -0.000000
   6 B   5.0000    0    10.810   -7.499105   -0.000000    0.000000
   7 B   5.0000    0    10.810   -6.494415   -3.749552    0.000000
   8 B   5.0000    0    10.810   -3.749552   -6.494415    0.000000
   9 B   5.0000    0    10.810   -0.000000   -7.499105    0.000000
  10 B   5.0000    0    10.810    3.749552   -6.494415   -0.000000
  11 B   5.0000    0    10.810    6.494415   -3.749552    0.000000

      -----------------------------------------------------------      
     |                   =====================                   |     
     |                           x T B                           |     
     |                   =====================                   |     
     |                         S. Grimme                         |     
     |          Mulliken Center for Theoretical Chemistry        |     
     |                    University of Bonn                     |     
      -----------------------------------------------------------      

   * xtb version 6.6.1 (unknown) compiled by 'builduser@buildhost' on 2023-08-07

   xtb is free software: you can redistribute it and/or modify it under
   the terms of the GNU Lesser General Public License as published by
   the Free Software Foundation, either version 3 of the License, or
   (at your option) any later version.
   
   xtb is distributed in the hope that it will be useful,
   but WITHOUT ANY WARRANTY; without even the implied warranty of
   MERCHANTABILITY or FITNESS FOR A PARTICULAR PURPOSE.  See the
   GNU Lesser General Public License for more details.
   
   Cite this work as:
   * C. Bannwarth, E. Caldeweyher, S. Ehlert, A. Hansen, P. Pracht,
     J. Seibert, S. Spicher, S. Grimme, WIREs Comput. Mol. Sci., 2020, 11,
     e01493. DOI: 10.1002/wcms.1493
   
   for GFN2-xTB:
   * C. Bannwarth, S. Ehlert and S. Grimme., J. Chem. Theory Comput., 2019,
     15, 1652-1671. DOI: 10.1021/acs.jctc.8b01176
   for GFN1-xTB:
   * S. Grimme, C. Bannwarth, P. Shushkov, J. Chem. Theory Comput., 2017,
     13, 1989-2009. DOI: 10.1021/acs.jctc.7b00118
   for GFN0-xTB:
   * P. Pracht, E. Caldeweyher, S. Ehlert, S. Grimme, ChemRxiv, 2019, preprint.
     DOI: 10.26434/chemrxiv.8326202.v1
   for GFN-FF:
   * S. Spicher and S. Grimme, Angew. Chem. Int. Ed., 2020, 59, 15665-15673.
     DOI: 10.1002/anie.202004239
   
   for ALPB and GBSA implicit solvation:
   * S. Ehlert, M. Stahn, S. Spicher, S. Grimme, J. Chem. Theory Comput.,
     2021, 17, 4250-4261. DOI: 10.1021/acs.jctc.1c00471
   
   for DFT-D4:
   * E. Caldeweyher, C. Bannwarth and S. Grimme, J. Chem. Phys., 2017,
     147, 034112. DOI: 10.1063/1.4993215
   * E. Caldeweyher, S. Ehlert, A. Hansen, H. Neugebauer, S. Spicher,
     C. Bannwarth and S. Grimme, J. Chem. Phys., 2019, 150, 154122.
     DOI: 10.1063/1.5090222
   * E. Caldeweyher, J.-M. Mewes, S. Ehlert and S. Grimme, Phys. Chem. Chem. Phys.
     2020, 22, 8499-8512. DOI: 10.1039/D0CP00502A
   
   for sTDA-xTB:
   * S. Grimme and C. Bannwarth, J. Chem. Phys., 2016, 145, 054103.
     DOI: 10.1063/1.4959605
   
   in the mass-spec context:
   * V. Asgeirsson, C. Bauer and S. Grimme, Chem. Sci., 2017, 8, 4879.
     DOI: 10.1039/c7sc00601b
   * J. Koopman and S. Grimme, ACS Omega 2019, 4, 12, 15120-15133.
     DOI: 10.1021/acsomega.9b02011
   
   for metadynamics refer to:
   * S. Grimme, J. Chem. Theory Comput., 2019, 155, 2847-2862
     DOI: 10.1021/acs.jctc.9b00143
   
   for SPH calculations refer to:
   * S. Spicher and S. Grimme, J. Chem. Theory Comput., 2021, 17, 1701-1714
     DOI: 10.1021/acs.jctc.0c01306
   
   with help from (in alphabetical order)
   P. Atkinson, C. Bannwarth, F. Bohle, G. Brandenburg, E. Caldeweyher
   M. Checinski, S. Dohm, S. Ehlert, S. Ehrlich, I. Gerasimov, C. Hölzer
   A. Katbashev, J. Koopman, C. Lavigne, S. Lehtola, F. März, M. Müller,
   F. Musil, H. Neugebauer, J. Pisarek, C. Plett, P. Pracht, F. Pultar,
   J. Seibert, P. Shushkov, S. Spicher, M. Stahn, M. Steiner, T. Strunk,
   J. Stückrath, T. Rose, and J. Unsleber
   
 * started run on 2026/04/17 at 12:14:57.985     

           -------------------------------------------------
          |                Calculation Setup                |
           -------------------------------------------------

          program call               : /usr/bin/xtb ring12_d2.10_m3_XTB.xyz --grad -c 0 -u 2 -P 1 --namespace ring12_d2.10_m3 --input ring12_d2.10_m3_XTB.input.tmp --acc 0.200000
          calculation namespace      : ring12_d2.10_m3
          coordinate file            : ring12_d2.10_m3_XTB.xyz
          omp threads                :                     1

   ID    Z sym.   atoms
    1    5 B      1-12

molecular fragmentation (1/2 indicates fragments):
112222222222
# atoms in fragment 1/2:     2    10
 fragment masses (1/2) :       21.62      108.11
CMA distance (Bohr)    :   8.692
constraining FC (au)   :  0.0500

           -------------------------------------------------
          |                 G F N 2 - x T B                 |
           -------------------------------------------------

        Reference                      10.1021/acs.jctc.8b01176
      * Hamiltonian:
        H0-scaling (s, p, d)           1.850000    2.230000    2.230000
        zeta-weighting                 0.500000
      * Dispersion:
        s8                             2.700000
        a1                             0.520000
        a2                             5.000000
        s9                             5.000000
      * Repulsion:
        kExp                           1.500000    1.000000
        rExp                           1.000000
      * Coulomb:
        alpha                          2.000000
        third order                    shell-resolved
        anisotropic                    true
        a3                             3.000000
        a5                             4.000000
        cn-shift                       1.200000
        cn-exp                         4.000000
        max-rad                        5.000000

q/qsh data taken from xtbrestart
CAMM data taken from xtbrestart

          ...................................................
          :                      SETUP                      :
          :.................................................:
          :  # basis functions                  48          :
          :  # atomic orbitals                  48          :
          :  # shells                           24          :
          :  # electrons                        36          :
          :  max. iterations                   250          :
          :  Hamiltonian                  GFN2-xTB          :
          :  restarted?                       true          :
          :  GBSA solvation                  false          :
          :  PC potential                    false          :
          :  electronic temp.          300.0000000     K    :
          :  accuracy                    0.2000000          :
          :  -> integral cutoff          0.3198970E+02      :
          :  -> integral neglect         0.2000000E-08      :
          :  -> SCF convergence          0.2000000E-06 Eh   :
          :  -> wf. convergence          0.2000000E-04 e    :
          :  Broyden damping             0.4000000          :
          ...................................................

 iter      E             dE          RMSdq      gap      omega  full diag
   1    -13.2854207 -0.132854E+02  0.393E-01    0.00       0.0  T
   2    -13.2854294 -0.872927E-05  0.273E-01    0.00       1.0  T
   3    -13.2854247  0.472841E-05  0.611E-02    0.00       1.0  T
   4    -13.2795803  0.584432E-02  0.449E-01    0.01       1.0  T
   5    -13.2846194 -0.503904E-02  0.161E-01    0.00       1.0  T
   6    -13.2854246 -0.805220E-03  0.251E-02    0.00       1.1  T
   7    -13.2853037  0.120912E-03  0.592E-02    0.00       1.0  T
   8    -13.2853206 -0.168836E-04  0.492E-02    0.00       1.0  T
   9    -13.2853974 -0.767927E-04  0.322E-02    0.00       1.0  T
  10    -13.2854104 -0.130593E-04  0.283E-02    0.00       1.0  T
  11    -13.2853279  0.824964E-04  0.540E-02    0.00       1.0  T
  12    -13.2854341 -0.106175E-03  0.244E-03    0.00      11.8  T
  13    -13.2854342 -0.136916E-06  0.830E-04    0.00      34.8  T
  14    -13.2854338  0.471632E-06  0.339E-03    0.00       8.5  T
  15    -13.2854342 -0.459523E-06  0.944E-04    0.00      30.6  T
  16    -13.2854343 -0.329079E-07  0.799E-05    0.00     361.5  T
  17    -13.2854343 -0.119275E-09  0.282E-05    0.00    1022.0  T

   *** convergence criteria satisfied after 17 iterations ***

         #    Occupation            Energy/Eh            Energy/eV
      -------------------------------------------------------------
         1        2.0000           -0.3606035              -9.8125
       ...           ...                  ...                  ...
        13        1.9998           -0.2436085              -6.6289
        14        1.9994           -0.2425746              -6.6008
        15        1.8216           -0.2369349              -6.4473
        16        1.8216           -0.2369349              -6.4473
        17        1.6788           -0.2361951              -6.4272
        18        1.6788           -0.2361951              -6.4272
        19        0.2706           -0.2172698              -5.9122 (HOMO)
        20        0.2706           -0.2172698              -5.9122 (LUMO)
        21        0.2294           -0.2170610              -5.9065
        22        0.2294           -0.2170610              -5.9065
        23                         -0.1877992              -5.1103
        24                         -0.1877992              -5.1103
       ...                                ...                  ...
        48                          0.1760358               4.7902
      -------------------------------------------------------------
                  HL-Gap            0.0000000 Eh            0.0000 eV
             Fermi-level           -0.2268481 Eh           -6.1729 eV

 transition dipole moment (au) for excitation:          18          19
     X       Y       Z   
  -0.0000   0.0000  -0.0000  total (au/Debye):    0.000   0.000
 dE (eV)             :    0.515
 oscillator strength :  0.44768E-17

 SCC (total)                   0 d,  0 h,  0 min,  0.028 sec
 SCC setup                      ...        0 min,  0.000 sec (  0.464%)
 Dispersion                     ...        0 min,  0.000 sec (  0.313%)
 classical contributions        ...        0 min,  0.000 sec (  0.083%)
 integral evaluation            ...        0 min,  0.002 sec (  7.361%)
 iterations                     ...        0 min,  0.018 sec ( 61.920%)
 molecular gradient             ...        0 min,  0.006 sec ( 19.694%)
 printout                       ...        0 min,  0.003 sec ( 10.101%)

         :::::::::::::::::::::::::::::::::::::::::::::::::::::
         ::                     SUMMARY                     ::
         :::::::::::::::::::::::::::::::::::::::::::::::::::::
         :: total energy             -13.280908258354 Eh    ::
         :: gradient norm              0.177020105617 Eh/a0 ::
         :: HOMO-LUMO gap              0.000000076911 eV    ::
         ::.................................................::
         :: SCC energy               -13.285434255091 Eh    ::
         :: -> isotropic ES            0.084933765773 Eh    ::
         :: -> anisotropic ES          0.005272354250 Eh    ::
         :: -> anisotropic XC         -0.077814675798 Eh    ::
         :: -> dispersion             -0.011839779497 Eh    ::
         :: repulsion energy           0.004371164678 Eh    ::
         :: add. restraining           0.000000000000 Eh    ::
         :: total charge              -0.000000000000 e     ::
         :::::::::::::::::::::::::::::::::::::::::::::::::::::


Property printout bound to 'properties.out'

           -------------------------------------------------
          | TOTAL ENERGY              -13.280908258354 Eh   |
          | GRADIENT NORM               0.177020105617 Eh/α |
          | HOMO-LUMO GAP               0.000000076911 eV   |
           -------------------------------------------------

------------------------------------------------------------------------
 * finished run on 2026/04/17 at 12:14:58.026     
------------------------------------------------------------------------
 total:
 * wall-time:     0 d,  0 h,  0 min,  0.041 sec
 *  cpu-time:     0 d,  0 h,  0 min,  0.040 sec
 * ratio c/w:     0.998 speedup
 SCF:
 * wall-time:     0 d,  0 h,  0 min,  0.029 sec
 *  cpu-time:     0 d,  0 h,  0 min,  0.028 sec
 * ratio c/w:     0.998 speedup


-------------------------   --------------------
FINAL SINGLE POINT ENERGY       -13.280908258350
-------------------------   --------------------


-------------
DIPOLE MOMENT
-------------
                                X             Y             Z
Total Dipole Moment    :     -0.00000      -0.00000       0.00000
                        -----------------------------------------
Magnitude (a.u.)       :      0.00000
Magnitude (Debye)      :      0.00000


------------------
CARTESIAN GRADIENT
------------------

   1   B   :    0.051101353   -0.000000037   -0.000000000
   2   B   :    0.044254926    0.025550812    0.000000000
   3   B   :    0.025550626    0.044254994   -0.000000000
   4   B   :    0.000000162    0.051101294    0.000000000
   5   B   :   -0.025550682    0.044255044   -0.000000000
   6   B   :   -0.044255065    0.025550613   -0.000000000
   7   B   :   -0.051101287   -0.000000048    0.000000000
   8   B   :   -0.044255063   -0.025550589    0.000000000
   9   B   :   -0.025550717   -0.044255012   -0.000000000
  10   B   :    0.000000152   -0.051101314    0.000000000
  11   B   :    0.025550656   -0.044254974   -0.000000000
  12   B   :    0.044254937   -0.025550784    0.000000000

Difference to translation invariance:
           :    0.0000000000    0.0000000000    0.0000000000

Difference to rotation invariance:
           :    0.0000000000   -0.0000000000    0.0000000000

Norm of the Cartesian gradient     ...    0.1770201056
RMS gradient                       ...    0.0295033509
MAX gradient                       ...    0.0511013532
------------------------------------------------------------------------------
                         ORCA GEOMETRY RELAXATION STEP
------------------------------------------------------------------------------

Reading the OPT-File                    .... done
Getting information on internals        .... done
Copying old internal coords+grads       .... done
Making the new internal coordinates     .... (2022 redundants) done
Validating the new internal coordinates .... (2022 redundants) done
Calculating the B-matrix                .... done
Calculating the G,G- and P matrices     .... done
Transforming gradient to internals      .... done
Projecting the internal gradient        .... done
Number of atoms                         ....  12
Number of internal coordinates          ....  36
Current Energy                          ....   -13.280908258 Eh
Current gradient norm                   ....     0.177020106 Eh/bohr
Maximum allowed component of the step   ....  0.300
Current trust radius                    ....  0.300
Updating the Hessian (BFGS)             .... done
Forming the augmented Hessian           .... done
Diagonalizing the augmented Hessian     .... done
Last element of RFO vector              ....  0.738211848
Lowest eigenvalues of augmented Hessian:
 -0.312494015  0.010000000  0.010000000  0.010000000  0.010000000
Length of the computed step             ....  0.913787758
Warning: the length of the step is outside the trust region - taking restricted step instead
The input lambda is                     ....     0.009000
   iter:   5  x=   -0.326209  g=   12.810511 f(x)=     1.596638
   iter:  10  x=   -1.076860  g=    0.171877 f(x)=     0.005233
The output lambda is                    ....    -1.078175 (14 iterations)
The final length of the internal step   ....  0.300000000
Converting the step to Cartesian space:
 Initial RMS(Int)=    0.0500000000
Transforming coordinates:
 Iter   0:  RMS(Cart)=    0.0965925826 RMS(Int)=    0.0500000000
done
Storing new coordinates                 .... done
The predicted energy change is          ....    -0.099814374
Previously predicted energy change      ....    -0.098832467
Actually observed energy change         ....    -0.102188995
Ratio of predicted to observed change   ....     1.033961795
New trust radius                        ....     0.450000000

                                .--------------------.
          ----------------------|Geometry convergence|-------------------------
          Item                value                   Tolerance       Converged
          ---------------------------------------------------------------------
          Energy change      -0.1021889948            0.0000010000      NO
          RMS gradient        0.0569960973            0.0000300000      NO
          MAX gradient        0.0987202418            0.0001000000      NO
          RMS step            0.0500000000            0.0006000000      NO
          MAX step            0.0866026329            0.0010000000      NO
          -------------------------------------------------------------------------
          ........................................................
          Max(Bonds)      0.0458      Max(Angles)    0.00
          Max(Dihed)        0.00      Max(Improp)    0.00
          ---------------------------------------------------------------------

The optimization has not yet converged - more geometry cycles are needed


    ---------------------------------------------------------------------------
                         Redundant Internal Coordinates
                            (Angstroem and degrees)

        Definition                    Value    dE/dq     Step     New-Value
    ----------------------------------------------------------------------------
     1. B(B   1,B   0)                2.0542  0.098720 -0.0458    2.0083   
     2. B(B   2,B   1)                2.0542  0.098720 -0.0458    2.0083   
     3. B(B   3,B   2)                2.0542  0.098720 -0.0458    2.0083   
     4. B(B   4,B   3)                2.0542  0.098720 -0.0458    2.0083   
     5. B(B   5,B   4)                2.0542  0.098720 -0.0458    2.0083   
     6. B(B   6,B   5)                2.0542  0.098720 -0.0458    2.0083   
     7. B(B   7,B   6)                2.0542  0.098720 -0.0458    2.0083   
     8. B(B   8,B   7)                2.0542  0.098720 -0.0458    2.0083   
     9. B(B   9,B   8)                2.0542  0.098720 -0.0458    2.0083   
    10. B(B  10,B   9)                2.0542  0.098720 -0.0458    2.0083   
    11. B(B  11,B  10)                2.0542  0.098720 -0.0458    2.0083   
    12. B(B  11,B   0)                2.0542  0.098720 -0.0458    2.0083   
    13. A(B   1,B   0,B  11)          150.00  0.000000   -0.00    150.00   
    14. A(B   0,B   1,B   2)          150.00  0.000000   -0.00    150.00   
    15. A(B   1,B   2,B   3)          150.00 -0.000000    0.00    150.00   
    16. A(B   2,B   3,B   4)          150.00  0.000000   -0.00    150.00   
    17. A(B   3,B   4,B   5)          150.00  0.000000   -0.00    150.00   
    18. A(B   4,B   5,B   6)          150.00 -0.000000    0.00    150.00   
    19. A(B   5,B   6,B   7)          150.00  0.000000   -0.00    150.00   
    20. A(B   6,B   7,B   8)          150.00 -0.000000    0.00    150.00   
    21. A(B   7,B   8,B   9)          150.00  0.000000   -0.00    150.00   
    22. A(B   8,B   9,B  10)          150.00 -0.000000    0.00    150.00   
    23. A(B   9,B  10,B  11)          150.00 -0.000000    0.00    150.00   
    24. A(B   0,B  11,B  10)          150.00  0.000000   -0.00    150.00   
    25. D(B   2,B   1,B   0,B  11)     -0.00 -0.000000   -0.00     -0.00   
    26. D(B   3,B   2,B   1,B   0)      0.00  0.000000    0.00      0.00   
    27. D(B   4,B   3,B   2,B   1)     -0.00  0.000000   -0.00     -0.00   
    28. D(B   5,B   4,B   3,B   2)      0.00  0.000000    0.00      0.00   
    29. D(B   6,B   5,B   4,B   3)     -0.00 -0.000000   -0.00     -0.00   
    30. D(B   7,B   6,B   5,B   4)     -0.00 -0.000000   -0.00     -0.00   
    31. D(B   8,B   7,B   6,B   5)      0.00 -0.000000    0.00      0.00   
    32. D(B   9,B   8,B   7,B   6)      0.00 -0.000000    0.00      0.00   
    33. D(B  10,B   9,B   8,B   7)     -0.00  0.000000   -0.00     -0.00   
    34. D(B  11,B  10,B   9,B   8)      0.00  0.000000    0.00      0.00   
    35. D(B   0,B  11,B  10,B   9)     -0.00 -0.000000   -0.00     -0.00   
    36. D(B  10,B  11,B   0,B   1)      0.00  0.000000    0.00      0.00   
    ----------------------------------------------------------------------------

Geometry step timings:
Preparation and reading OPT file:      0.000 s ( 1.685 %)
Internal coordinates            :      0.000 s ( 1.531 %)
B/P matrices and projection     :      0.000 s (20.419 %)
Hessian update/contruction      :      0.000 s (22.920 %)
Making the step                 :      0.000 s (23.328 %)
Converting the step to Cartesian:      0.000 s ( 1.991 %)
Storing new data                :      0.000 s ( 2.501 %)
Checking convergence            :      0.000 s ( 3.114 %)
Final printing                  :      0.000 s (22.409 %)
Total time                      :      0.002 s

Time for energy+gradient        :      0.052 s
Time for complete geometry iter :      0.055 s

         *************************************************************
         *                GEOMETRY OPTIMIZATION CYCLE   3            *
         *************************************************************
---------------------------------
CARTESIAN COORDINATES (ANGSTROEM)
---------------------------------
  B     3.879822   -0.000000   -0.000000
  B     3.360025    1.939911    0.000000
  B     1.939911    3.360025   -0.000000
  B    -0.000000    3.879822    0.000000
  B    -1.939911    3.360025   -0.000000
  B    -3.360025    1.939911   -0.000000
  B    -3.879822   -0.000000    0.000000
  B    -3.360025   -1.939911    0.000000
  B    -1.939911   -3.360025    0.000000
  B    -0.000000   -3.879822    0.000000
  B     1.939911   -3.360025   -0.000000
  B     3.360025   -1.939911    0.000000

----------------------------
CARTESIAN COORDINATES (A.U.)
----------------------------
  NO LB    ZA    FRAG    MASS        X           Y           Z
   0 B   5.0000    0    10.810    7.331802   -0.000000   -0.000000
   1 B   5.0000    0    10.810    6.349527    3.665901    0.000000
   2 B   5.0000    0    10.810    3.665901    6.349527   -0.000000
   3 B   5.0000    0    10.810   -0.000000    7.331802    0.000000
   4 B   5.0000    0    10.810   -3.665901    6.349527   -0.000000
   5 B   5.0000    0    10.810   -6.349526    3.665901   -0.000000
   6 B   5.0000    0    10.810   -7.331802   -0.000000    0.000000
   7 B   5.0000    0    10.810   -6.349526   -3.665901    0.000000
   8 B   5.0000    0    10.810   -3.665901   -6.349527    0.000000
   9 B   5.0000    0    10.810   -0.000000   -7.331802    0.000000
  10 B   5.0000    0    10.810    3.665901   -6.349526   -0.000000
  11 B   5.0000    0    10.810    6.349527   -3.665901    0.000000

      -----------------------------------------------------------      
     |                   =====================                   |     
     |                           x T B                           |     
     |                   =====================                   |     
     |                         S. Grimme                         |     
     |          Mulliken Center for Theoretical Chemistry        |     
     |                    University of Bonn                     |     
      -----------------------------------------------------------      

   * xtb version 6.6.1 (unknown) compiled by 'builduser@buildhost' on 2023-08-07

   xtb is free software: you can redistribute it and/or modify it under
   the terms of the GNU Lesser General Public License as published by
   the Free Software Foundation, either version 3 of the License, or
   (at your option) any later version.
   
   xtb is distributed in the hope that it will be useful,
   but WITHOUT ANY WARRANTY; without even the implied warranty of
   MERCHANTABILITY or FITNESS FOR A PARTICULAR PURPOSE.  See the
   GNU Lesser General Public License for more details.
   
   Cite this work as:
   * C. Bannwarth, E. Caldeweyher, S. Ehlert, A. Hansen, P. Pracht,
     J. Seibert, S. Spicher, S. Grimme, WIREs Comput. Mol. Sci., 2020, 11,
     e01493. DOI: 10.1002/wcms.1493
   
   for GFN2-xTB:
   * C. Bannwarth, S. Ehlert and S. Grimme., J. Chem. Theory Comput., 2019,
     15, 1652-1671. DOI: 10.1021/acs.jctc.8b01176
   for GFN1-xTB:
   * S. Grimme, C. Bannwarth, P. Shushkov, J. Chem. Theory Comput., 2017,
     13, 1989-2009. DOI: 10.1021/acs.jctc.7b00118
   for GFN0-xTB:
   * P. Pracht, E. Caldeweyher, S. Ehlert, S. Grimme, ChemRxiv, 2019, preprint.
     DOI: 10.26434/chemrxiv.8326202.v1
   for GFN-FF:
   * S. Spicher and S. Grimme, Angew. Chem. Int. Ed., 2020, 59, 15665-15673.
     DOI: 10.1002/anie.202004239
   
   for ALPB and GBSA implicit solvation:
   * S. Ehlert, M. Stahn, S. Spicher, S. Grimme, J. Chem. Theory Comput.,
     2021, 17, 4250-4261. DOI: 10.1021/acs.jctc.1c00471
   
   for DFT-D4:
   * E. Caldeweyher, C. Bannwarth and S. Grimme, J. Chem. Phys., 2017,
     147, 034112. DOI: 10.1063/1.4993215
   * E. Caldeweyher, S. Ehlert, A. Hansen, H. Neugebauer, S. Spicher,
     C. Bannwarth and S. Grimme, J. Chem. Phys., 2019, 150, 154122.
     DOI: 10.1063/1.5090222
   * E. Caldeweyher, J.-M. Mewes, S. Ehlert and S. Grimme, Phys. Chem. Chem. Phys.
     2020, 22, 8499-8512. DOI: 10.1039/D0CP00502A
   
   for sTDA-xTB:
   * S. Grimme and C. Bannwarth, J. Chem. Phys., 2016, 145, 054103.
     DOI: 10.1063/1.4959605
   
   in the mass-spec context:
   * V. Asgeirsson, C. Bauer and S. Grimme, Chem. Sci., 2017, 8, 4879.
     DOI: 10.1039/c7sc00601b
   * J. Koopman and S. Grimme, ACS Omega 2019, 4, 12, 15120-15133.
     DOI: 10.1021/acsomega.9b02011
   
   for metadynamics refer to:
   * S. Grimme, J. Chem. Theory Comput., 2019, 155, 2847-2862
     DOI: 10.1021/acs.jctc.9b00143
   
   for SPH calculations refer to:
   * S. Spicher and S. Grimme, J. Chem. Theory Comput., 2021, 17, 1701-1714
     DOI: 10.1021/acs.jctc.0c01306
   
   with help from (in alphabetical order)
   P. Atkinson, C. Bannwarth, F. Bohle, G. Brandenburg, E. Caldeweyher
   M. Checinski, S. Dohm, S. Ehlert, S. Ehrlich, I. Gerasimov, C. Hölzer
   A. Katbashev, J. Koopman, C. Lavigne, S. Lehtola, F. März, M. Müller,
   F. Musil, H. Neugebauer, J. Pisarek, C. Plett, P. Pracht, F. Pultar,
   J. Seibert, P. Shushkov, S. Spicher, M. Stahn, M. Steiner, T. Strunk,
   J. Stückrath, T. Rose, and J. Unsleber
   
 * started run on 2026/04/17 at 12:14:58.039     

           -------------------------------------------------
          |                Calculation Setup                |
           -------------------------------------------------

          program call               : /usr/bin/xtb ring12_d2.10_m3_XTB.xyz --grad -c 0 -u 2 -P 1 --namespace ring12_d2.10_m3 --input ring12_d2.10_m3_XTB.input.tmp --acc 0.200000
          calculation namespace      : ring12_d2.10_m3
          coordinate file            : ring12_d2.10_m3_XTB.xyz
          omp threads                :                     1

   ID    Z sym.   atoms
    1    5 B      1-12

molecular fragmentation (1/2 indicates fragments):
112222222222
# atoms in fragment 1/2:     2    10
 fragment masses (1/2) :       21.62      108.11
CMA distance (Bohr)    :   8.498
constraining FC (au)   :  0.0500

           -------------------------------------------------
          |                 G F N 2 - x T B                 |
           -------------------------------------------------

        Reference                      10.1021/acs.jctc.8b01176
      * Hamiltonian:
        H0-scaling (s, p, d)           1.850000    2.230000    2.230000
        zeta-weighting                 0.500000
      * Dispersion:
        s8                             2.700000
        a1                             0.520000
        a2                             5.000000
        s9                             5.000000
      * Repulsion:
        kExp                           1.500000    1.000000
        rExp                           1.000000
      * Coulomb:
        alpha                          2.000000
        third order                    shell-resolved
        anisotropic                    true
        a3                             3.000000
        a5                             4.000000
        cn-shift                       1.200000
        cn-exp                         4.000000
        max-rad                        5.000000

q/qsh data taken from xtbrestart
CAMM data taken from xtbrestart

          ...................................................
          :                      SETUP                      :
          :.................................................:
          :  # basis functions                  48          :
          :  # atomic orbitals                  48          :
          :  # shells                           24          :
          :  # electrons                        36          :
          :  max. iterations                   250          :
          :  Hamiltonian                  GFN2-xTB          :
          :  restarted?                       true          :
          :  GBSA solvation                  false          :
          :  PC potential                    false          :
          :  electronic temp.          300.0000000     K    :
          :  accuracy                    0.2000000          :
          :  -> integral cutoff          0.3198970E+02      :
          :  -> integral neglect         0.2000000E-08      :
          :  -> SCF convergence          0.2000000E-06 Eh   :
          :  -> wf. convergence          0.2000000E-04 e    :
          :  Broyden damping             0.4000000          :
          ...................................................

 iter      E             dE          RMSdq      gap      omega  full diag
   1    -13.3900468 -0.133900E+02  0.443E-01    0.00       0.0  T
   2    -13.3900553 -0.854396E-05  0.304E-01    0.00       1.0  T
   3    -13.3900586 -0.329640E-05  0.510E-02    0.00       1.0  T
   4    -13.3892962  0.762426E-03  0.154E-01    0.00       1.0  T
   5    -13.3899659 -0.669639E-03  0.553E-02    0.00       1.0  T
   6    -13.3900078 -0.419916E-04  0.455E-02    0.00       1.0  T
   7    -13.3896643  0.343575E-03  0.904E-02    0.00       1.0  T
   8    -13.3900524 -0.388159E-03  0.135E-02    0.00       2.1  T
   9    -13.3900372  0.152558E-04  0.324E-02    0.00       1.0  T
  10    -13.3900557 -0.184925E-04  0.122E-02    0.00       2.4  T
  11    -13.3900543  0.132651E-05  0.131E-02    0.00       2.2  T
  12    -13.3900601 -0.571529E-05  0.240E-04    0.00     120.4  T
  13    -13.3900599  0.105101E-06  0.150E-03    0.00      19.2  T
  14    -13.3900600 -0.101713E-06  0.368E-04    0.00      78.5  T
  15    -13.3900601 -0.394130E-08  0.216E-04    0.00     133.6  T
  16    -13.3900601 -0.104133E-08  0.114E-04    0.00     253.0  T
  17    -13.3900601 -0.283652E-09  0.319E-05    0.00     904.7  T

   *** convergence criteria satisfied after 17 iterations ***

         #    Occupation            Energy/Eh            Energy/eV
      -------------------------------------------------------------
         1        2.0000           -0.3634579              -9.8902
       ...           ...                  ...                  ...
        13        1.9999           -0.2464435              -6.7061
        14        1.9995           -0.2449327              -6.6650
        15        1.8616           -0.2393583              -6.5133
        16        1.8616           -0.2393583              -6.5133
        17        1.6386           -0.2381617              -6.4807
        18        1.6386           -0.2381617              -6.4807
        19        0.3164           -0.2183781              -5.9424 (HOMO)
        20        0.3164           -0.2183780              -5.9424 (LUMO)
        21        0.1836           -0.2176925              -5.9237
        22        0.1836           -0.2176924              -5.9237
        23                         -0.1859553              -5.0601
        24                         -0.1859553              -5.0601
       ...                                ...                  ...
        48                          0.2152059               5.8561
      -------------------------------------------------------------
                  HL-Gap            0.0000001 Eh            0.0000 eV
             Fermi-level           -0.2283653 Eh           -6.2141 eV

 transition dipole moment (au) for excitation:          18          19
     X       Y       Z   
   0.0000   0.0000   0.0000  total (au/Debye):    0.000   0.000
 dE (eV)             :    0.538
 oscillator strength :  0.12810E-17

 SCC (total)                   0 d,  0 h,  0 min,  0.024 sec
 SCC setup                      ...        0 min,  0.000 sec (  0.541%)
 Dispersion                     ...        0 min,  0.000 sec (  0.386%)
 classical contributions        ...        0 min,  0.000 sec (  0.117%)
 integral evaluation            ...        0 min,  0.002 sec (  8.114%)
 iterations                     ...        0 min,  0.015 sec ( 59.885%)
 molecular gradient             ...        0 min,  0.005 sec ( 19.457%)
 printout                       ...        0 min,  0.003 sec ( 11.406%)

         :::::::::::::::::::::::::::::::::::::::::::::::::::::
         ::                     SUMMARY                     ::
         :::::::::::::::::::::::::::::::::::::::::::::::::::::
         :: total energy             -13.383552294808 Eh    ::
         :: gradient norm              0.176798901335 Eh/a0 ::
         :: HOMO-LUMO gap              0.000001648695 eV    ::
         ::.................................................::
         :: SCC energy               -13.390060054089 Eh    ::
         :: -> isotropic ES            0.086765016680 Eh    ::
         :: -> anisotropic ES          0.005443701414 Eh    ::
         :: -> anisotropic XC         -0.076553364177 Eh    ::
         :: -> dispersion             -0.011973419575 Eh    ::
         :: repulsion energy           0.006342349746 Eh    ::
         :: add. restraining           0.000000000000 Eh    ::
         :: total charge              -0.000000000000 e     ::
         :::::::::::::::::::::::::::::::::::::::::::::::::::::


Property printout bound to 'properties.out'

           -------------------------------------------------
          | TOTAL ENERGY              -13.383552294808 Eh   |
          | GRADIENT NORM               0.176798901335 Eh/α |
          | HOMO-LUMO GAP               0.000001648695 eV   |
           -------------------------------------------------

------------------------------------------------------------------------
 * finished run on 2026/04/17 at 12:14:58.075     
------------------------------------------------------------------------
 total:
 * wall-time:     0 d,  0 h,  0 min,  0.035 sec
 *  cpu-time:     0 d,  0 h,  0 min,  0.035 sec
 * ratio c/w:     0.999 speedup
 SCF:
 * wall-time:     0 d,  0 h,  0 min,  0.024 sec
 *  cpu-time:     0 d,  0 h,  0 min,  0.024 sec
 * ratio c/w:     0.999 speedup


-------------------------   --------------------
FINAL SINGLE POINT ENERGY       -13.383552294810
-------------------------   --------------------


-------------
DIPOLE MOMENT
-------------
                                X             Y             Z
Total Dipole Moment    :     -0.00000       0.00000       0.00000
                        -----------------------------------------
Magnitude (a.u.)       :      0.00000
Magnitude (Debye)      :      0.00000


------------------
CARTESIAN GRADIENT
------------------

   1   B   :    0.051037465   -0.000000211   -0.000000000
   2   B   :    0.044199622    0.025518925    0.000000000
   3   B   :    0.025518702    0.044199695   -0.000000000
   4   B   :    0.000000221    0.051037458    0.000000000
   5   B   :   -0.025518906    0.044199636   -0.000000000
   6   B   :   -0.044199697    0.025518719   -0.000000000
   7   B   :   -0.051037475    0.000000223    0.000000000
   8   B   :   -0.044199634   -0.025518928    0.000000000
   9   B   :   -0.025518668   -0.044199719   -0.000000000
  10   B   :   -0.000000225   -0.051037453    0.000000000
  11   B   :    0.025518886   -0.044199641   -0.000000000
  12   B   :    0.044199710   -0.025518706    0.000000000

Difference to translation invariance:
           :   -0.0000000000    0.0000000000   -0.0000000000

Difference to rotation invariance:
           :   -0.0000000000    0.0000000000   -0.0000000016

Norm of the Cartesian gradient     ...    0.1767989013
RMS gradient                       ...    0.0294664836
MAX gradient                       ...    0.0510374748
------------------------------------------------------------------------------
                         ORCA GEOMETRY RELAXATION STEP
------------------------------------------------------------------------------

Reading the OPT-File                    .... done
Getting information on internals        .... done
Copying old internal coords+grads       .... done
Making the new internal coordinates     .... (2022 redundants) done
[...]
    24. A(B   0,B  11,B  10)          150.00 -0.000000    0.00    150.00   
    25. D(B   2,B   1,B   0,B  11)     -0.00 -0.000000    0.00      0.00   
    26. D(B   3,B   2,B   1,B   0)     -0.00 -0.000000    0.00      0.00   
    27. D(B   4,B   3,B   2,B   1)     -0.00 -0.000000    0.00      0.00   
    28. D(B   5,B   4,B   3,B   2)      0.00  0.000000   -0.00     -0.00   
    29. D(B   6,B   5,B   4,B   3)      0.00  0.000000   -0.00     -0.00   
    30. D(B   7,B   6,B   5,B   4)     -0.00  0.000000   -0.00     -0.00   
    31. D(B   8,B   7,B   6,B   5)     -0.00 -0.000000    0.00      0.00   
    32. D(B   9,B   8,B   7,B   6)     -0.00 -0.000000    0.00      0.00   
    33. D(B  10,B   9,B   8,B   7)      0.00  0.000000    0.00      0.00   
    34. D(B  11,B  10,B   9,B   8)      0.00  0.000000   -0.00     -0.00   
    35. D(B   0,B  11,B  10,B   9)      0.00  0.000000   -0.00     -0.00   
    36. D(B  10,B  11,B   0,B   1)      0.00  0.000000   -0.00     -0.00   
    ----------------------------------------------------------------------------

Geometry step timings:
Preparation and reading OPT file:      0.000 s ( 1.870 %)
Internal coordinates            :      0.000 s ( 1.805 %)
B/P matrices and projection     :      0.000 s (24.049 %)
Hessian update/contruction      :      0.000 s (23.533 %)
Making the step                 :      0.000 s (13.604 %)
Converting the step to Cartesian:      0.000 s ( 2.257 %)
Storing new data                :      0.000 s ( 3.933 %)
Checking convergence            :      0.000 s ( 4.771 %)
Final printing                  :      0.000 s (24.178 %)
Total time                      :      0.002 s
                 *******************************************************
                 *** FINAL ENERGY EVALUATION AT THE STATIONARY POINT ***
                 ***               (AFTER    9 CYCLES)               ***
                 *******************************************************
---------------------------------
CARTESIAN COORDINATES (ANGSTROEM)
---------------------------------
  B     2.927706    0.000000    0.000000
  B     2.535470    1.463845    0.000000
  B     1.463865    2.535453   -0.000000
  B     0.000010    2.927695   -0.000000
  B    -1.463861    2.535456   -0.000000
  B    -2.535475    1.463847    0.000000
  B    -2.927713    0.000004    0.000000
  B    -2.535474   -1.463852    0.000000
  B    -1.463862   -2.535462   -0.000000
  B    -0.000004   -2.927698   -0.000000
  B     1.463865   -2.535451   -0.000000
  B     2.535474   -1.463837    0.000000

----------------------------
CARTESIAN COORDINATES (A.U.)
----------------------------
  NO LB    ZA    FRAG    MASS        X           Y           Z
   0 B   5.0000    0    10.810    5.532562    0.000000    0.000000
   1 B   5.0000    0    10.810    4.791343    2.766266    0.000000
   2 B   5.0000    0    10.810    2.766303    4.791311   -0.000000
   3 B   5.0000    0    10.810    0.000019    5.532542   -0.000000
   4 B   5.0000    0    10.810   -2.766297    4.791318   -0.000000
   5 B   5.0000    0    10.810   -4.791353    2.766269    0.000000
   6 B   5.0000    0    10.810   -5.532575    0.000007    0.000000
   7 B   5.0000    0    10.810   -4.791351   -2.766279    0.000000
   8 B   5.0000    0    10.810   -2.766298   -4.791328   -0.000000
   9 B   5.0000    0    10.810   -0.000008   -5.532547   -0.000000
  10 B   5.0000    0    10.810    2.766304   -4.791308   -0.000000
  11 B   5.0000    0    10.810    4.791351   -2.766250    0.000000

      -----------------------------------------------------------      
     |                   =====================                   |     
     |                           x T B                           |     
     |                   =====================                   |     
     |                         S. Grimme                         |     
     |          Mulliken Center for Theoretical Chemistry        |     
     |                    University of Bonn                     |     
      -----------------------------------------------------------      

   * xtb version 6.6.1 (unknown) compiled by 'builduser@buildhost' on 2023-08-07

   xtb is free software: you can redistribute it and/or modify it under
   the terms of the GNU Lesser General Public License as published by
   the Free Software Foundation, either version 3 of the License, or
   (at your option) any later version.
   
   xtb is distributed in the hope that it will be useful,
   but WITHOUT ANY WARRANTY; without even the implied warranty of
   MERCHANTABILITY or FITNESS FOR A PARTICULAR PURPOSE.  See the
   GNU Lesser General Public License for more details.
   
   Cite this work as:
   * C. Bannwarth, E. Caldeweyher, S. Ehlert, A. Hansen, P. Pracht,
     J. Seibert, S. Spicher, S. Grimme, WIREs Comput. Mol. Sci., 2020, 11,
     e01493. DOI: 10.1002/wcms.1493
   
   for GFN2-xTB:
   * C. Bannwarth, S. Ehlert and S. Grimme., J. Chem. Theory Comput., 2019,
     15, 1652-1671. DOI: 10.1021/acs.jctc.8b01176
   for GFN1-xTB:
   * S. Grimme, C. Bannwarth, P. Shushkov, J. Chem. Theory Comput., 2017,
     13, 1989-2009. DOI: 10.1021/acs.jctc.7b00118
   for GFN0-xTB:
   * P. Pracht, E. Caldeweyher, S. Ehlert, S. Grimme, ChemRxiv, 2019, preprint.
     DOI: 10.26434/chemrxiv.8326202.v1
   for GFN-FF:
   * S. Spicher and S. Grimme, Angew. Chem. Int. Ed., 2020, 59, 15665-15673.
     DOI: 10.1002/anie.202004239
   
   for ALPB and GBSA implicit solvation:
   * S. Ehlert, M. Stahn, S. Spicher, S. Grimme, J. Chem. Theory Comput.,
     2021, 17, 4250-4261. DOI: 10.1021/acs.jctc.1c00471
   
   for DFT-D4:
   * E. Caldeweyher, C. Bannwarth and S. Grimme, J. Chem. Phys., 2017,
     147, 034112. DOI: 10.1063/1.4993215
   * E. Caldeweyher, S. Ehlert, A. Hansen, H. Neugebauer, S. Spicher,
     C. Bannwarth and S. Grimme, J. Chem. Phys., 2019, 150, 154122.
     DOI: 10.1063/1.5090222
   * E. Caldeweyher, J.-M. Mewes, S. Ehlert and S. Grimme, Phys. Chem. Chem. Phys.
     2020, 22, 8499-8512. DOI: 10.1039/D0CP00502A
   
   for sTDA-xTB:
   * S. Grimme and C. Bannwarth, J. Chem. Phys., 2016, 145, 054103.
     DOI: 10.1063/1.4959605
   
   in the mass-spec context:
   * V. Asgeirsson, C. Bauer and S. Grimme, Chem. Sci., 2017, 8, 4879.
     DOI: 10.1039/c7sc00601b
   * J. Koopman and S. Grimme, ACS Omega 2019, 4, 12, 15120-15133.
     DOI: 10.1021/acsomega.9b02011
   
   for metadynamics refer to:
   * S. Grimme, J. Chem. Theory Comput., 2019, 155, 2847-2862
     DOI: 10.1021/acs.jctc.9b00143
   
   for SPH calculations refer to:
   * S. Spicher and S. Grimme, J. Chem. Theory Comput., 2021, 17, 1701-1714
     DOI: 10.1021/acs.jctc.0c01306
   
   with help from (in alphabetical order)
   P. Atkinson, C. Bannwarth, F. Bohle, G. Brandenburg, E. Caldeweyher
   M. Checinski, S. Dohm, S. Ehlert, S. Ehrlich, I. Gerasimov, C. Hölzer
   A. Katbashev, J. Koopman, C. Lavigne, S. Lehtola, F. März, M. Müller,
   F. Musil, H. Neugebauer, J. Pisarek, C. Plett, P. Pracht, F. Pultar,
   J. Seibert, P. Shushkov, S. Spicher, M. Stahn, M. Steiner, T. Strunk,
   J. Stückrath, T. Rose, and J. Unsleber
   
 * started run on 2026/04/17 at 12:14:58.399     

           -------------------------------------------------
          |                Calculation Setup                |
           -------------------------------------------------

          program call               : /usr/bin/xtb ring12_d2.10_m3_XTB.xyz --grad -c 0 -u 2 -P 1 --namespace ring12_d2.10_m3 --input ring12_d2.10_m3_XTB.input.tmp --acc 0.200000
          calculation namespace      : ring12_d2.10_m3
          coordinate file            : ring12_d2.10_m3_XTB.xyz
          omp threads                :                     1

   ID    Z sym.   atoms
    1    5 B      1-12

           -------------------------------------------------
          |                 G F N 2 - x T B                 |
           -------------------------------------------------

        Reference                      10.1021/acs.jctc.8b01176
      * Hamiltonian:
        H0-scaling (s, p, d)           1.850000    2.230000    2.230000
        zeta-weighting                 0.500000
      * Dispersion:
        s8                             2.700000
        a1                             0.520000
        a2                             5.000000
        s9                             5.000000
      * Repulsion:
        kExp                           1.500000    1.000000
        rExp                           1.000000
      * Coulomb:
        alpha                          2.000000
        third order                    shell-resolved
        anisotropic                    true
        a3                             3.000000
        a5                             4.000000
        cn-shift                       1.200000
        cn-exp                         4.000000
        max-rad                        5.000000

q/qsh data taken from xtbrestart
CAMM data taken from xtbrestart

          ...................................................
          :                      SETUP                      :
          :.................................................:
          :  # basis functions                  48          :
          :  # atomic orbitals                  48          :
          :  # shells                           24          :
          :  # electrons                        36          :
          :  max. iterations                   250          :
          :  Hamiltonian                  GFN2-xTB          :
          :  restarted?                       true          :
          :  GBSA solvation                  false          :
          :  PC potential                    false          :
          :  electronic temp.          300.0000000     K    :
          :  accuracy                    0.2000000          :
          :  -> integral cutoff          0.3198970E+02      :
          :  -> integral neglect         0.2000000E-08      :
          :  -> SCF convergence          0.2000000E-06 Eh   :
          :  -> wf. convergence          0.2000000E-04 e    :
          :  Broyden damping             0.4000000          :
          ...................................................

 iter      E             dE          RMSdq      gap      omega  full diag
   1    -14.4981456 -0.144981E+02  0.212E-03    0.00       0.0  T
   2    -14.4981453  0.332720E-06  0.448E-03    0.00       6.5  T
   3    -14.4981452  0.322425E-07  0.451E-03    0.00       6.4  T
   4    -14.4981455 -0.260143E-06  0.340E-03    0.00       8.5  T
   5    -14.4981456 -0.619108E-07  0.100E-03    0.00      28.9  T
   6    -14.4981456 -0.485849E-07  0.138E-04    0.00     209.0  T
   7    -14.4981456  0.543086E-10  0.990E-05    0.00     291.6  T

   *** convergence criteria satisfied after 7 iterations ***

         #    Occupation            Energy/Eh            Energy/eV
      -------------------------------------------------------------
         1        2.0000           -0.3949819             -10.7480
       ...           ...                  ...                  ...
        13        2.0000           -0.2851409              -7.7591
        14        2.0000           -0.2819194              -7.6714
        15        1.9978           -0.2755692              -7.4986
        16        1.9978           -0.2755689              -7.4986
        17        1.5022           -0.2697480              -7.3402
        18        1.5021           -0.2697477              -7.3402
        19        0.4996           -0.2360683              -6.4237 (HOMO)
        20        0.4994           -0.2360678              -6.4237 (LUMO)
        21        0.0005           -0.2288161              -6.2264
        22        0.0005           -0.2288157              -6.2264
        23                         -0.1648249              -4.4851
        24                         -0.1648249              -4.4851
       ...                                ...                  ...
        48                          1.2258185              33.3562
      -------------------------------------------------------------
                  HL-Gap            0.0000006 Eh            0.0000 eV
             Fermi-level           -0.2529048 Eh           -6.8819 eV

 transition dipole moment (au) for excitation:          18          19
     X       Y       Z   
  -0.0000  -0.0000  -0.0000  total (au/Debye):    0.000   0.000
 dE (eV)             :    0.916
 oscillator strength :  0.21278E-13

 SCC (total)                   0 d,  0 h,  0 min,  0.019 sec
 SCC setup                      ...        0 min,  0.000 sec (  0.697%)
 Dispersion                     ...        0 min,  0.000 sec (  0.614%)
 classical contributions        ...        0 min,  0.000 sec (  0.183%)
 integral evaluation            ...        0 min,  0.003 sec ( 13.619%)
 iterations                     ...        0 min,  0.007 sec ( 39.662%)
 molecular gradient             ...        0 min,  0.005 sec ( 26.709%)
 printout                       ...        0 min,  0.003 sec ( 18.369%)

         :::::::::::::::::::::::::::::::::::::::::::::::::::::
         ::                     SUMMARY                     ::
         :::::::::::::::::::::::::::::::::::::::::::::::::::::
         :: total energy             -14.219856531840 Eh    ::
         :: gradient norm              0.000028115778 Eh/a0 ::
         :: HOMO-LUMO gap              0.000015355912 eV    ::
         ::.................................................::
         :: SCC energy               -14.498145608059 Eh    ::
         :: -> isotropic ES            0.094094914130 Eh    ::
         :: -> anisotropic ES          0.002867921602 Eh    ::
         :: -> anisotropic XC         -0.039732253927 Eh    ::
         :: -> dispersion             -0.012504454978 Eh    ::
         :: repulsion energy           0.278150616689 Eh    ::
         :: add. restraining           0.000000000000 Eh    ::
         :: total charge               0.000000000000 e     ::
         :::::::::::::::::::::::::::::::::::::::::::::::::::::


Property printout bound to 'properties.out'

           -------------------------------------------------
          | TOTAL ENERGY              -14.219856531840 Eh   |
          | GRADIENT NORM               0.000028115778 Eh/α |
          | HOMO-LUMO GAP               0.000015355912 eV   |
           -------------------------------------------------

------------------------------------------------------------------------
 * finished run on 2026/04/17 at 12:14:58.429     
------------------------------------------------------------------------
 total:
 * wall-time:     0 d,  0 h,  0 min,  0.030 sec
 *  cpu-time:     0 d,  0 h,  0 min,  0.030 sec
 * ratio c/w:     0.997 speedup
 SCF:
 * wall-time:     0 d,  0 h,  0 min,  0.019 sec
 *  cpu-time:     0 d,  0 h,  0 min,  0.019 sec
 * ratio c/w:     0.995 speedup


-------------------------   --------------------
FINAL SINGLE POINT ENERGY       -14.219856531840
-------------------------   --------------------


-------------
DIPOLE MOMENT
-------------
                                X             Y             Z
Total Dipole Moment    :     -0.00000      -0.00000      -0.00000
                        -----------------------------------------
Magnitude (a.u.)       :      0.00000
Magnitude (Debye)      :      0.00000

                                *** OPTIMIZATION RUN DONE ***


--------------------------------
SUGGESTED CITATIONS FOR THIS RUN
--------------------------------

Below you find a list of papers that are relevant to this ORCA run
We neither can nor want to force you to cite these papers, but we appreciate if you do
You receive ORCA, which is the product of decades of hard work by many enthusiastic individuals, for free
The only thing we kindly ask in return is that you cite our papers,
We deeply appreciate it, if you show your appreciation for ORCA by not just citing the generic ORCA reference.

Please note that relegating all ORCA citations to the supporting information does *not* help us.
SI sections are not indexed - citations you put there will not count into any citation statistics
But we need these citations in order to attract the funding resources that allow us to do what we are doing

Therefore, if you are a happy ORCA user, please consider citing a few of the papers listed below in the main body of your paper

In addition to the list printed below, the program has created the file ring12_d2.10_m3.bibtex that contains the list in bibtex format
You can import this file easily into all common literature databanks and citation aid programs

It goes without saying that in many instances, there are alternative algorithms to achieve similar
results as the ones you have gotten from ORCA. It is, of course, also the case that in some instances
ORCA just re-implements algorithms worked out by others. We are fully aware of that and we are also
fully appreciative of our colleagues work. Hence this citation list should not be read as indicating
that the listed papers, which are focused on our own work, are the only ones worth citing. It simply
meant to make it easier for users to cite ORCA specific papers. It is not a substitute for doing your
own literature research and citing the relevant literature in a scientifically appropriate manner.

List of essential papers. We consider these as the minimum necessary citations

  1. Bannwarth, C.; Ehlert, S.; Grimme, S.
     GFN2-xTB—An Accurate and Broadly Parametrized Self-Consistent Tight-Binding Quantum Chemical Method with Multipole Electrostatics and Density-Dependent Dispersion Contributions
     J. Chem. Theory Comput. 2019 15(3), 1652-1671
     doi.org/10.1021/acs.jctc.8b01176
  2. Neese, F.
     Software update: the ORCA program system, version 6.0
     WIRES Comput. Molec. Sci. 2025 15(1), e70019
     doi.org/10.1002/wcms.70019

List of papers to cite with high priority. The work reported in these papers was absolutely
necessary for this run to complete.
Our perspective: the developers of density functionals and basis sets usually get cited in chemistry papers
Good! But without the algorithms to do something with them, the functionals or basis sets would not do anything.
Hence, in our opinion, the algorithm design and method developments papers are equally worthy of getting cited

  1. Bannwarth, C.; Caldeweyher, E.; Ehlert, S.; Hansen, A.; Pracht, P.; Seibert, J.; Spicher, S.; Grimme, S.
     Extended tight-binding quantum chemistry methods
     WIRES Comput. Molec. Sci. 2020 11(2), e1493
     doi.org/10.1002/wcms.1493

List of suggested additional citations. These are papers that are important in the 'surrounding' of 
of this run, or papers that preceded the highly important papers. If you like your results we are grateful for a citation.

  1. Neese, F.
     The ORCA program system
     WIRES Comput. Molec. Sci. 2012 2(1), 73-78
     doi.org/10.1002/wcms.81
  2. Neese, F.
     Software update: the ORCA program system, version 4.0
     WIRES Comput. Molec. Sci. 2018 8(1), 1-6
     doi.org/10.1002/wcms.1327
  3. Neese, F.; Wennmohs, F.; Becker, U.; Riplinger, C.
     The ORCA quantum chemistry program package
     J. Chem. Phys. 2020 152(22), 224108
     doi.org/10.1063/5.0004608
  4. Neese, F.
     Software update: The ORCA program system—Version 5.0
     WIRES Comput. Molec. Sci. 2022 12(1), e1606
     doi.org/10.1002/wcms.1606

List of optional additional citations

  1. Neese, F.
     Approximate second-order SCF convergence for spin unrestricted wavefunctions
     Chem. Phys. Lett. 2000 325(1-3), 93-98
     doi.org/10.1016/s0009-2614(00)00662-x

Timings for individual modules:

Sum of individual times          ...        0.487 sec (=   0.008 min)
Geometry relaxation              ...        0.028 sec (=   0.000 min)   5.7 %
XTB module                       ...        0.459 sec (=   0.008 min)  94.3 %
                             ****ORCA TERMINATED NORMALLY****
TOTAL RUN TIME: 0 days 0 hours 0 minutes 0 seconds 644 msec
