
                                 *****************
                                 * O   R   C   A *
                                 *****************

                                            #,                                       
                                            ###                                      
                                            ####                                     
                                            #####                                    
                                            ######                                   
                                           ########,                                 
                                     ,,################,,,,,                         
                               ,,#################################,,                 
                          ,,##########################################,,             
                       ,#########################################, ''#####,          
                    ,#############################################,,   '####,        
                  ,##################################################,,,,####,       
                ,###########''''           ''''###############################       
              ,#####''   ,,,,##########,,,,          '''####'''          '####       
            ,##' ,,,,###########################,,,                        '##       
           ' ,,###''''                  '''############,,,                           
         ,,##''                                '''############,,,,        ,,,,,,###''
      ,#''                                            '''#######################'''  
     '                                                          ''''####''''         
             ,#######,   #######,   ,#######,      ##                                
            ,#'     '#,  ##    ##  ,#'     '#,    #''#        ,####,    ,#,          
            ##       ##  ##   ,#'  ##            #'  '#       #'       ,# #          
            ##       ##  #######   ##           ,######,      #####,      #          
            '#,     ,#'  ##    ##  '#,     ,#' ,#      #,     #,   #      #          
             '#######'   ##     ##  '#######'  #'      '#     '####' #    #          



                #########################################################
                #                        -***-                          #
                #          Department of theory and spectroscopy        #
                #                                                       #
                #                      Frank Neese                      #
                #                                                       #
                #     Directorship, Architecture, Infrastructure        #
                #                    SHARK, DRIVERS                     #
                #        Core code/Algorithms in most modules           #
                #                                                       #
                #        Max Planck Institute fuer Kohlenforschung      #
                #                Kaiser Wilhelm Platz 1                 #
                #                 D-45470 Muelheim/Ruhr                 #
                #                      Germany                          #
                #                                                       #
                #                  All rights reserved                  #
                #                        -***-                          #
                #########################################################


                         Program Version 6.1.1  -  RELEASE   -
                                (GIT: $487d211c$)
                          ($2025-11-21 10:33:24 +0100$)
                                                                         
                                  - NO-DMRG VERSION -                    
                                                                         


 With contributions from (in alphabetic order):
[Max-Planck-Institut fuer Kohlenforschung]                               
  Daniel Aravena         : Magnetic Suceptibility                        
  Michael Atanasov       : Ab Initio Ligand Field Theory (pilot matlab implementation)
  Alexander A. Auer      : GIAO ZORA, VPT2 properties, NMR spectrum      
  Ute Becker             : All parallelization in ORCA, NUMFREQ, NUMCALC 
  Giovanni Bistoni       : ED, misc. LED, open-shell LED, HFLD           
  Dmytro Bykov           : pre 5.0 version of the SCF Hessian            
  Marcos Casanova-Páez   : Triplet and SCS-CIS(D). UHF-(DLPNO)-IP/EA/STEOM-CCSD. UHF-CVS-IP/STEOM-CCSD   
  Vijay G. Chilkuri      : MRCI spin determinant printing, contributions to CSF-ICE 
  Pauline Colinet        : FMM embedding                                 
  Dipayan Datta          : RHF DLPNO-CCSD density                        
  Achintya Kumar Dutta   : EOM-CC, STEOM-CC                              
  Nicolas Foglia         : Exact transition moments, OPA infrastructure, MCD improvements    
  Dmitry Ganyushin       : Spin-Orbit,Spin-Spin,Magnetic field MRCI      
  Miquel Garcia-Rates    : C-PCM and meta-GGA Hessian, CCSD/C-PCM, Gaussian charge scheme 
  Tiago L. C. Gouveia    : GS-ROHF, GS-ROCIS                             
  Yang Guo               : DLPNO-NEVPT2, F12-NEVPT2, CIM, IAO-localization        
  Andreas Hansen         : Spin unrestricted coupled pair/coupled cluster methods 
  Ingolf Harden          : AUTO-CI MPn and infrastructure                
  Benjamin Helmich-Paris : MC-RPA, TRAH-(SCF,CASSCF), AVAS, COSX integrals, SCF dyn. polar., MC-PDFT, srDFT 
  Lee Huntington         : MR-EOM, pCC                                   
  Robert Izsak           : Overlap fitted RIJCOSX, COSX-SCS-MP3, EOM     
  Riya Kayal             : Wick's Theorem for AUTO-CI, AUTO-CI UHF-CCSDT 
  Emily Kempfer          : AUTO-CI RHF CISDT and CCSDT, approximate NEVPT4
  Christian Kollmar      : KDIIS, OOCD, Brueckner-CCSD(T), CCSD density, CASPT2, CASPT2-K, improved NEVPT2 
  Axel Koslowski         : Symmetry handling                             
  Simone Kossmann        : meta-GGA functionals, TD-DFT gradient, OOMP2, (MP2 Hessian; deprecated post 5.0) 
  Lucas Lang             : DCDCAS, Hyperfine gauge corrections, ICE-SOC+SSC
  Marvin Lechner         : AUTO-CI (C++ implementation), FIC-MRCC        
  Spencer Leger          : CASSCF response                               
  Dagmar Lenk            : GEPOL surface, SMD, ORCA-2-JSON               
  Dimitrios Liakos       : Extrapolation schemes; Compound Job, Property file
  Dimitrios Manganas     : Further ROCIS development; embedding schemes. LFT, Crystal Embedding 
  Dimitrios Pantazis     : SARC Basis sets                               
  Anastasios Papadopoulos: AUTO-CI, single reference methods and gradients 
  Taras Petrenko         : pre 6.0 DFT Hessian and TD-DFT gradient,  ECA, NRVS 
  Petra Pikulova         : Analytic Raman intensities                    
  Peter Pinski           : DLPNO-MP2, DLPNO-MP2 Gradient                 
  Shashank Vittal Rao    : ES-AILFT, MagRelax                            
  Christoph Reimann      : Effective Core Potentials                     
  Marius Retegan         : Local ZFS, SOC                                
  Christoph Riplinger    : Optimizer, TS searches, QM/MM, DLPNO-CCSD(T), (RO)-DLPNO pert. Triples 
  Michael Roemelt        : Original ROCIS implementation, recursive CI coupling coefficients
  Masaaki Saitow         : Open-shell DLPNO-CCSD energy and density      
  Barbara Sandhoefer     : DKH picture change effects                    
  Yorick L. A. Schmerwitz: GMF and freeze-and-release deltaSCF, NEB S-IDPP initial path                    
  Kantharuban Sivalingam : CASSCF convergence/infrastructure, NEVPT2, NEVPT3, NEVPT4(SD), FIC-MRCI and CEPA variants
  Bernardo de Souza      : ESD, SOC TD-DFT                               
  Georgi L. Stoychev     : AutoAux, RI-MP2 NMR, DLPNO-MP2 response, X2C  
  Van Anh Tran           : RI-MP2 g-tensors                              
  Willem Van den Heuvel  : Paramagnetic NMR                              
  Zikuan Wang            : NOTCH, Electric field optimization            
  Frank Wennmohs         : Technical directorship and infrastructure     
  Hang Xu                : AUTO-CI-Response properties                   
                                                                         
[FACCTs GmbH]                                                            
  Markus Bursch, Nicolas Foglia, Miquel Garcia-Rates, Ingolf Harden, Hagen Neugebauer, Anastasios Papadopoulos, 
  Christoph Riplinger, Bernardo de Souza, Georgi L. Stoychev                                                    
                                                                 
  APM, various basis sets, CI-OPT, improved COSX, DLPNO-Multilevel,           
  DOCKER, DRACO, updates on ESD, Fragmentator, GOAT, IRC, LR-CPCM, L-BFGS, MBIS, meta-GGA TD-DFT gradient, ML-optimized integration grids, 
  MM, NACMEs, nearIR, NEB, NEB-TS, NL-DFT gradient (VV10), 2- and 3-layer-ONIOM, interface openCOSMO-RS, QMMM,   
  Crystal-QMMM, RESP, rigid body optimization, SF, symmetry and pop. for TD-DFT, various functionals, SOLVATOR                                   
                                                                         
[Other institutions]                                                     
  V. Asgeirsson          : NEB                                           
  Christoph Bannwarth    : sTDA-DFT, sTD-DFT, PBEh-3c, B97-3c, D3        
  Giovanni Bistoni       : ETS/NOCV, ADLD/ADEX, COVALED                  
  Martin Brehm           : Molecular dynamics                            
  Ronald Cardenas        : ETS/NOCV                                      
  Martina Colucci        : COVALED                                       
  Sebastian Ehlert       : rSCAN, r2SCAN, r2SCAN-3c, D4, dhf basis sets  
  Marvin Friede          : D4 for Fr, Ra, Ac-Lr                          
  Lars Goerigk           : TD-DFT with DH, B97 family of functionals     
  Stefan Grimme          : VdW corrections, initial TS optimization, DFT functionals, gCP, sTDA/sTD-DF 
  Waldemar Hujo          : DFT-NL                                        
  H. Jonsson             : NEB                                           
  Holger Kruse           : gCP                                           
  Marcel Mueller         : wB97X-3c, vDZP basis set                      
  Hagen Neugebauer       : wr2SCAN, Native XTB                           
  Gianluca Regni         : ADLD/ADEX                                     
  Tobias Risthaus        : pre 6.0 range-separated hybrid DFT and stability analysis
  Lukas Wittmann         : regularized MP2, r2SCAN double-hybrids, wr2SCAN        
                                                                         
We gratefully acknowledge several colleagues who have allowed us to      
interface, adapt or use parts of their codes:                            
  Ed Valeev, F. Pavosevic, A. Kumar             : LibInt (2-el integral package), F12 methods 
  Garnet Chan, S. Sharma, J. Yang, R. Olivares  : DMRG                   
  Ulf Ekstrom                                   : XCFun DFT Library      
  Mihaly Kallay                                 : mrcc  (arbitrary order and MRCC methods)
  Frank Weinhold                                : gennbo (NPA and NBO analysis)           
  Simon Mueller                                 : openCOSMO-RS                            
  Christopher J. Cramer and Donald G. Truhlar   : smd solvation model                     
  S Lehtola, MJT Oliveira, MAL Marques          : LibXC Library                           
  Liviu Ungur et al                             : ANISO software                          


 Your calculation uses the libint2 library for the computation of 2-el integrals
 For citations please refer to: http://libint.valeyev.net

 Your ORCA version has been built with support for libXC version: 7.0.0
 For citations please refer to: https://libxc.gitlab.io

 This ORCA versions uses:
   CBLAS   interface :  Fast vector & matrix operations
   LAPACKE interface :  Fast linear algebra routines
   SCALAPACK package :  Parallel linear algebra routines
   Shared memory     :  Shared parallel matrices
   BLAS/LAPACK       :  OpenBLAS 0.3.29  USE64BITINT DYNAMIC_ARCH NO_AFFINITY Zen SINGLE_THREADED
        Core in use  :  Zen
   Copyright (c) 2011-2014, The OpenBLAS Project


  ***********************************
  * Starting time: Fri Apr 17 12:14:59 2026
  * Host name:     vmi3233575
  * Process ID:    341381
  * Working dir.:  /root/orca_b12_vps_pack/jobs/01_xtb/mult_3
  ***********************************

NOTE: MaxCore=500 MB was set to SCF,MP2,MDCI,CIPSI,MRCI,RASCI and CIS
      => If you want to overwrite this, your respective input block should be placed after the MaxCore statement


***************************************
The coordinates will be read from file: ../../../starts/zigzag_chain12_d1.90.xyz
***************************************


Your calculation utilizes the semiempirical GFN2-xTB method
Please cite in your paper:
Bannwarth, C.; Ehlert S.; Grimme, S. J. Chem. Theory Comput. 2019, 15, 1652.
   

================================================================================

================================================================================
                                        WARNINGS
                       Please study these warnings very carefully!
================================================================================


WARNING: Geometry Optimization
  ===> : Switching off AutoStart
         For restart on a previous wavefunction, please use MOREAD

WARNING: Found dipole moment calculation with XTB calculation
  ===> : Switching off dipole moment calculation

Environment variable XTBEXE for xtb has been set!

================================================================================
                                       INPUT FILE
================================================================================
NAME = zigzag_chain12_d1.90_m3.inp
|  1> ! GFN2-xTB TightSCF TightOpt
|  2> 
|  3> %pal
|  4>   nprocs 1
|  5> end
|  6> 
|  7> %maxcore 500
|  8> 
|  9> * xyzfile 0 3 ../../../starts/zigzag_chain12_d1.90.xyz
| 10> 
| 11>                          ****END OF INPUT****
================================================================================

                       *****************************
                       * Geometry Optimization Run *
                       *****************************

Geometry optimization settings:
Update method            Update   .... BFGS
Choice of coordinates    CoordSys .... (2022) Redundant Internals
Initial Hessian          InHess   .... Almloef's Model
Max. no of cycles        MaxIter  .... 50

Convergence Tolerances:
Energy Change            TolE     ....  1.0000e-06 Eh
Max. Gradient            TolMAXG  ....  1.0000e-04 Eh/bohr
RMS Gradient             TolRMSG  ....  3.0000e-05 Eh/bohr
Max. Displacement        TolMAXD  ....  1.0000e-03 bohr
RMS Displacement         TolRMSD  ....  6.0000e-04 bohr
Strict Convergence                .... False

------------------------------------------------------------------------------
                        ORCA OPTIMIZATION COORDINATE SETUP
------------------------------------------------------------------------------

The optimization will be done in redundant internal coordinates (2022)
Making redundant internal coordinates   ...  (2022 redundants) done
Evaluating the initial hessian          ...  (Almloef) done
Evaluating the coordinates              ...  done
Calculating the B-matrix                .... done
Calculating the G-matrix                .... done
The number of degrees of freedom        ....   31

    -----------------------------------------------------------------
                    Redundant Internal Coordinates


    -----------------------------------------------------------------
         Definition                    Initial Value    Approx d2E/dq
    -----------------------------------------------------------------
      1. B(B   1,B   0)                  2.1965         0.043324   
      2. B(B   2,B   1)                  2.1965         0.043324   
      3. B(B   3,B   2)                  2.1965         0.043324   
      4. B(B   4,B   3)                  2.1965         0.043324   
      5. B(B   5,B   4)                  2.1965         0.043324   
      6. B(B   6,B   5)                  2.1965         0.043324   
      7. B(B   6,B   0)                 10.4880         0.010000   
      8. B(B   7,B   6)                  2.1965         0.043324   
      9. B(B   8,B   7)                  2.1965         0.043324   
     10. B(B   9,B   8)                  2.1965         0.043324   
     11. B(B  10,B   9)                  2.1965         0.043324   
     12. B(B  11,B  10)                  2.1965         0.043324   
     13. A(B   0,B   1,B   2)          105.4672         0.196954   
     14. A(B   1,B   2,B   3)          105.4672         0.196954   
     15. A(B   2,B   3,B   4)          105.4672         0.196954   
     16. A(B   3,B   4,B   5)          105.4672         0.196954   
     17. A(B   4,B   5,B   6)          105.4672         0.196954   
     18. A(B   5,B   6,B   7)          105.4672         0.196954   
     19. A(B   6,B   7,B   8)          105.4672         0.196954   
     20. A(B   7,B   8,B   9)          105.4672         0.196954   
     21. A(B   8,B   9,B  10)          105.4672         0.196954   
     22. A(B   9,B  10,B  11)          105.4672         0.196954   
     23. D(B   3,B   2,B   1,B   0)    180.0000         0.010000   
     24. D(B   4,B   3,B   2,B   1)    180.0000         0.010000   
     25. D(B   5,B   4,B   3,B   2)    180.0000         0.010000   
     26. D(B   6,B   5,B   4,B   3)    180.0000         0.010000   
     27. D(B   7,B   6,B   5,B   4)    180.0000         0.010000   
     28. D(B   8,B   7,B   6,B   5)    180.0000         0.010000   
     29. D(B   9,B   8,B   7,B   6)    180.0000         0.010000   
     30. D(B  10,B   9,B   8,B   7)    180.0000         0.010000   
     31. D(B  11,B  10,B   9,B   8)    180.0000         0.010000   
    -----------------------------------------------------------------

Number of atoms                         .... 12
Number of degrees of freedom            .... 31


         *************************************************************
         *                GEOMETRY OPTIMIZATION CYCLE   1            *
         *************************************************************
---------------------------------
CARTESIAN COORDINATES (ANGSTROEM)
---------------------------------
  B    -9.614000    0.665000    0.000000
  B    -7.866000   -0.665000    0.000000
  B    -6.118000    0.665000    0.000000
  B    -4.370000   -0.665000    0.000000
  B    -2.622000    0.665000    0.000000
  B    -0.874000   -0.665000    0.000000
  B     0.874000    0.665000    0.000000
  B     2.622000   -0.665000    0.000000
  B     4.370000    0.665000    0.000000
  B     6.118000   -0.665000    0.000000
  B     7.866000    0.665000    0.000000
  B     9.614000   -0.665000    0.000000

----------------------------
CARTESIAN COORDINATES (A.U.)
----------------------------
  NO LB    ZA    FRAG    MASS        X           Y           Z
   0 B   5.0000    0    10.810  -18.167827    1.256668    0.000000
   1 B   5.0000    0    10.810  -14.864586   -1.256668    0.000000
   2 B   5.0000    0    10.810  -11.561344    1.256668    0.000000
   3 B   5.0000    0    10.810   -8.258103   -1.256668    0.000000
   4 B   5.0000    0    10.810   -4.954862    1.256668    0.000000
   5 B   5.0000    0    10.810   -1.651621   -1.256668    0.000000
   6 B   5.0000    0    10.810    1.651621    1.256668    0.000000
   7 B   5.0000    0    10.810    4.954862   -1.256668    0.000000
   8 B   5.0000    0    10.810    8.258103    1.256668    0.000000
   9 B   5.0000    0    10.810   11.561344   -1.256668    0.000000
  10 B   5.0000    0    10.810   14.864586    1.256668    0.000000
  11 B   5.0000    0    10.810   18.167827   -1.256668    0.000000

      -----------------------------------------------------------      
     |                   =====================                   |     
     |                           x T B                           |     
     |                   =====================                   |     
     |                         S. Grimme                         |     
     |          Mulliken Center for Theoretical Chemistry        |     
     |                    University of Bonn                     |     
      -----------------------------------------------------------      

   * xtb version 6.6.1 (unknown) compiled by 'builduser@buildhost' on 2023-08-07

   xtb is free software: you can redistribute it and/or modify it under
   the terms of the GNU Lesser General Public License as published by
   the Free Software Foundation, either version 3 of the License, or
   (at your option) any later version.
   
   xtb is distributed in the hope that it will be useful,
   but WITHOUT ANY WARRANTY; without even the implied warranty of
   MERCHANTABILITY or FITNESS FOR A PARTICULAR PURPOSE.  See the
   GNU Lesser General Public License for more details.
   
   Cite this work as:
   * C. Bannwarth, E. Caldeweyher, S. Ehlert, A. Hansen, P. Pracht,
     J. Seibert, S. Spicher, S. Grimme, WIREs Comput. Mol. Sci., 2020, 11,
     e01493. DOI: 10.1002/wcms.1493
   
   for GFN2-xTB:
   * C. Bannwarth, S. Ehlert and S. Grimme., J. Chem. Theory Comput., 2019,
     15, 1652-1671. DOI: 10.1021/acs.jctc.8b01176
   for GFN1-xTB:
   * S. Grimme, C. Bannwarth, P. Shushkov, J. Chem. Theory Comput., 2017,
     13, 1989-2009. DOI: 10.1021/acs.jctc.7b00118
   for GFN0-xTB:
   * P. Pracht, E. Caldeweyher, S. Ehlert, S. Grimme, ChemRxiv, 2019, preprint.
     DOI: 10.26434/chemrxiv.8326202.v1
   for GFN-FF:
   * S. Spicher and S. Grimme, Angew. Chem. Int. Ed., 2020, 59, 15665-15673.
     DOI: 10.1002/anie.202004239
   
   for ALPB and GBSA implicit solvation:
   * S. Ehlert, M. Stahn, S. Spicher, S. Grimme, J. Chem. Theory Comput.,
     2021, 17, 4250-4261. DOI: 10.1021/acs.jctc.1c00471
   
   for DFT-D4:
   * E. Caldeweyher, C. Bannwarth and S. Grimme, J. Chem. Phys., 2017,
     147, 034112. DOI: 10.1063/1.4993215
   * E. Caldeweyher, S. Ehlert, A. Hansen, H. Neugebauer, S. Spicher,
     C. Bannwarth and S. Grimme, J. Chem. Phys., 2019, 150, 154122.
     DOI: 10.1063/1.5090222
   * E. Caldeweyher, J.-M. Mewes, S. Ehlert and S. Grimme, Phys. Chem. Chem. Phys.
     2020, 22, 8499-8512. DOI: 10.1039/D0CP00502A
   
   for sTDA-xTB:
   * S. Grimme and C. Bannwarth, J. Chem. Phys., 2016, 145, 054103.
     DOI: 10.1063/1.4959605
   
   in the mass-spec context:
   * V. Asgeirsson, C. Bauer and S. Grimme, Chem. Sci., 2017, 8, 4879.
     DOI: 10.1039/c7sc00601b
   * J. Koopman and S. Grimme, ACS Omega 2019, 4, 12, 15120-15133.
     DOI: 10.1021/acsomega.9b02011
   
   for metadynamics refer to:
   * S. Grimme, J. Chem. Theory Comput., 2019, 155, 2847-2862
     DOI: 10.1021/acs.jctc.9b00143
   
   for SPH calculations refer to:
   * S. Spicher and S. Grimme, J. Chem. Theory Comput., 2021, 17, 1701-1714
     DOI: 10.1021/acs.jctc.0c01306
   
   with help from (in alphabetical order)
   P. Atkinson, C. Bannwarth, F. Bohle, G. Brandenburg, E. Caldeweyher
   M. Checinski, S. Dohm, S. Ehlert, S. Ehrlich, I. Gerasimov, C. Hölzer
   A. Katbashev, J. Koopman, C. Lavigne, S. Lehtola, F. März, M. Müller,
   F. Musil, H. Neugebauer, J. Pisarek, C. Plett, P. Pracht, F. Pultar,
   J. Seibert, P. Shushkov, S. Spicher, M. Stahn, M. Steiner, T. Strunk,
   J. Stückrath, T. Rose, and J. Unsleber
   
 * started run on 2026/04/17 at 12:14:59.953     

           -------------------------------------------------
          |                Calculation Setup                |
           -------------------------------------------------

          program call               : /usr/bin/xtb zigzag_chain12_d1.90_m3_XTB.xyz --grad -c 0 -u 2 -P 1 --namespace zigzag_chain12_d1.90_m3 --input zigzag_chain12_d1.90_m3_XTB.input.tmp --acc 0.200000
          calculation namespace      : zigzag_chain12_d1.90_m3
          coordinate file            : zigzag_chain12_d1.90_m3_XTB.xyz
          omp threads                :                     1

   ID    Z sym.   atoms
    1    5 B      1-12

molecular fragmentation (1/2 indicates fragments):
122222222222
# atoms in fragment 1/2:     1    11
 fragment masses (1/2) :       10.81      118.92
CMA distance (Bohr)    :  19.867
constraining FC (au)   :  0.0500

           -------------------------------------------------
          |                 G F N 2 - x T B                 |
           -------------------------------------------------

        Reference                      10.1021/acs.jctc.8b01176
      * Hamiltonian:
        H0-scaling (s, p, d)           1.850000    2.230000    2.230000
        zeta-weighting                 0.500000
      * Dispersion:
        s8                             2.700000
        a1                             0.520000
        a2                             5.000000
        s9                             5.000000
      * Repulsion:
        kExp                           1.500000    1.000000
        rExp                           1.000000
      * Coulomb:
        alpha                          2.000000
        third order                    shell-resolved
        anisotropic                    true
        a3                             3.000000
        a5                             4.000000
        cn-shift                       1.200000
        cn-exp                         4.000000
        max-rad                        5.000000


          ...................................................
          :                      SETUP                      :
          :.................................................:
          :  # basis functions                  48          :
          :  # atomic orbitals                  48          :
          :  # shells                           24          :
          :  # electrons                        36          :
          :  max. iterations                   250          :
          :  Hamiltonian                  GFN2-xTB          :
          :  restarted?                      false          :
          :  GBSA solvation                  false          :
          :  PC potential                    false          :
          :  electronic temp.          300.0000000     K    :
          :  accuracy                    0.2000000          :
          :  -> integral cutoff          0.3198970E+02      :
          :  -> integral neglect         0.2000000E-08      :
          :  -> SCF convergence          0.2000000E-06 Eh   :
          :  -> wf. convergence          0.2000000E-04 e    :
          :  Broyden damping             0.4000000          :
          ...................................................

 iter      E             dE          RMSdq      gap      omega  full diag
   1    -12.6894933 -0.126895E+02  0.238E+01    0.02       0.0  T
   2      1.4572143  0.141467E+02  0.223E+01    0.00       1.0  T
   3     25.5337966  0.240766E+02  0.301E+01    1.33       1.0  T
   4     13.4624811 -0.120713E+02  0.296E+01    0.52       1.0  T
   5      3.7760439 -0.968644E+01  0.193E+01    0.57       1.0  T
   6     -6.5805652 -0.103566E+02  0.187E+01    0.09       1.0  T
   7     -2.8476842  0.373288E+01  0.169E+01    0.11       1.0  T
   8     -8.2351150 -0.538743E+01  0.131E+01    0.04       1.0  T
   9     -6.2221691  0.201295E+01  0.142E+01    0.04       1.0  T
  10     -6.1031489  0.119020E+00  0.132E+01    0.01       1.0  T
  11     -6.5658626 -0.462714E+00  0.127E+01    0.05       1.0  T
  12     -7.2181208 -0.652258E+00  0.126E+01    0.13       1.0  T
  13     -8.2474004 -0.102928E+01  0.106E+01    0.00       1.0  T
  14     -9.8445021 -0.159710E+01  0.846E+00    0.03       1.0  T
  15     -9.5275585  0.316944E+00  0.859E+00    0.04       1.0  T
  16     -9.4125690  0.114989E+00  0.860E+00    0.04       1.0  T
  17    -11.5947029 -0.218213E+01  0.684E+00    0.07       1.0  T
  18    -11.6354125 -0.407095E-01  0.610E+00    0.08       1.0  T
  19    -11.6580782 -0.226658E-01  0.619E+00    0.09       1.0  T
  20    -11.9726777 -0.314599E+00  0.608E+00    0.11       1.0  T
  21    -11.4000687  0.572609E+00  0.638E+00    0.07       1.0  T
  22    -11.2024037  0.197665E+00  0.654E+00    0.05       1.0  T
  23    -11.2018886  0.515033E-03  0.654E+00    0.05       1.0  T
  24    -11.1963690  0.551963E-02  0.654E+00    0.05       1.0  T
  25    -11.1972303 -0.861324E-03  0.648E+00    0.05       1.0  T
  26    -11.3490368 -0.151806E+00  0.613E+00    0.07       1.0  T
  27    -12.3297410 -0.980704E+00  0.500E+00    0.16       1.0  T
  28    -12.4865766 -0.156836E+00  0.483E+00    0.16       1.0  T
  29    -11.9714604  0.515116E+00  0.509E+00    0.12       1.0  T
  30    -12.0108771 -0.394167E-01  0.504E+00    0.13       1.0  T
  31    -12.0649712 -0.540941E-01  0.497E+00    0.13       1.0  T
  32    -12.4698547 -0.404883E+00  0.441E+00    0.16       1.0  T
  33    -12.5014054 -0.315508E-01  0.424E+00    0.16       1.0  T
  34    -12.5394122 -0.380067E-01  0.406E+00    0.16       1.0  T
  35    -12.5928473 -0.534352E-01  0.358E+00    0.15       1.0  T
  36    -12.6107210 -0.178736E-01  0.327E+00    0.15       1.0  T
  37    -12.6556808 -0.449598E-01  0.270E+00    0.16       1.0  T
  38    -12.7010064 -0.453256E-01  0.201E+00    0.15       1.0  T
  39    -12.7237097 -0.227033E-01  0.152E+00    0.15       1.0  T
  40    -12.7408452 -0.171355E-01  0.146E+00    0.15       1.0  T
  41    -12.7507115 -0.986631E-02  0.141E+00    0.14       1.0  T
  42    -12.7502765  0.435046E-03  0.139E+00    0.14       1.0  T
  43    -12.7438931  0.638343E-02  0.121E+00    0.13       1.0  T
  44    -12.7434502  0.442889E-03  0.117E+00    0.13       1.0  T
  45    -12.7427250  0.725199E-03  0.111E+00    0.13       1.0  T
  46    -12.7430927 -0.367737E-03  0.101E+00    0.13       1.0  T
  47    -12.7412703  0.182243E-02  0.110E+00    0.13       1.0  T
  48    -12.7395538  0.171651E-02  0.110E+00    0.13       1.0  T
  49    -12.7495829 -0.100291E-01  0.102E+00    0.14       1.0  T
  50    -12.7493541  0.228725E-03  0.932E-01    0.14       1.0  T
  51    -12.7519629 -0.260875E-02  0.709E-01    0.14       1.0  T
  52    -12.7521276 -0.164695E-03  0.672E-01    0.14       1.0  T
  53    -12.7523697 -0.242141E-03  0.673E-01    0.14       1.0  T
  54    -12.7526714 -0.301720E-03  0.616E-01    0.14       1.0  T
  55    -12.7525883  0.831052E-04  0.502E-01    0.14       1.0  T
  56    -12.7530197 -0.431326E-03  0.461E-01    0.14       1.0  T
  57    -12.7534098 -0.390093E-03  0.380E-01    0.14       1.0  T
  58    -12.7537666 -0.356876E-03  0.334E-01    0.14       1.0  T
  59    -12.7539572 -0.190515E-03  0.246E-01    0.14       1.0  T
  60    -12.7540820 -0.124875E-03  0.176E-01    0.14       1.0  T
  61    -12.7540874 -0.541967E-05  0.148E-01    0.14       1.0  T
  62    -12.7541208 -0.333529E-04  0.126E-01    0.14       1.0  T
  63    -12.7542204 -0.995716E-04  0.697E-02    0.14       1.0  T
  64    -12.7542488 -0.284364E-04  0.456E-02    0.14       1.0  T
  65    -12.7542555 -0.668044E-05  0.319E-02    0.14       1.0  T
  66    -12.7542626 -0.709148E-05  0.166E-02    0.14       1.7  T
  67    -12.7542645 -0.193178E-05  0.124E-02    0.14       2.3  T
  68    -12.7542644  0.985413E-07  0.125E-02    0.14       2.3  T
  69    -12.7542657 -0.133099E-05  0.788E-03    0.14       3.7  T
  70    -12.7542660 -0.244583E-06  0.671E-03    0.14       4.3  T
  71    -12.7542660 -0.478126E-07  0.616E-03    0.14       4.7  T
  72    -12.7542661 -0.168507E-07  0.598E-03    0.14       4.8  T
  73    -12.7542661 -0.159676E-07  0.585E-03    0.14       4.9  T
  74    -12.7542661 -0.191551E-07  0.506E-03    0.14       5.7  T
  75    -12.7542662 -0.615205E-07  0.330E-03    0.14       8.7  T
  76    -12.7542662 -0.388486E-07  0.142E-03    0.14      20.3  T
  77    -12.7542662  0.341045E-08  0.965E-04    0.14      29.9  T
  78    -12.7542662 -0.112208E-07  0.448E-04    0.14      64.5  T
  79    -12.7542662 -0.886542E-09  0.193E-04    0.14     149.6  T
  80    -12.7542662 -0.443992E-09  0.247E-04    0.14     116.9  T
  81    -12.7542662 -0.351333E-09  0.111E-04    0.14     259.8  T

   *** convergence criteria satisfied after 81 iterations ***

         #    Occupation            Energy/Eh            Energy/eV
      -------------------------------------------------------------
         1        2.0000           -0.3702737             -10.0757
       ...           ...                  ...                  ...
        13        2.0000           -0.2686060              -7.3091
        14        2.0000           -0.2664794              -7.2513
        15        1.9999           -0.2620592              -7.1310
        16        1.9969           -0.2583945              -7.0313
        17        1.6679           -0.2535876              -6.9005
        18        1.2265           -0.2518489              -6.8532
        19        1.0170           -0.2506490              -6.8205 (HOMO)
        20        0.0506           -0.2453645              -6.6767 (LUMO)
        21        0.0412           -0.2451611              -6.6712
        22        0.0000           -0.2371353              -6.4528
        23        0.0000           -0.2369633              -6.4481
        24                         -0.2280215              -6.2048
       ...                                ...                  ...
        48                         -0.0109523              -0.2980
      -------------------------------------------------------------
                  HL-Gap            0.0052845 Eh            0.1438 eV
             Fermi-level           -0.2505338 Eh           -6.8174 eV

 transition dipole moment (au) for excitation:          18          19
     X       Y       Z   
  -0.0000   0.0000   0.0000  total (au/Debye):    0.000   0.000
 dE (eV)             :    0.033
 oscillator strength :  0.51194E-16

 SCC (total)                   0 d,  0 h,  0 min,  0.089 sec
 SCC setup                      ...        0 min,  0.000 sec (  0.143%)
 Dispersion                     ...        0 min,  0.000 sec (  0.104%)
 classical contributions        ...        0 min,  0.000 sec (  0.042%)
 integral evaluation            ...        0 min,  0.002 sec (  1.778%)
 iterations                     ...        0 min,  0.081 sec ( 91.015%)
 molecular gradient             ...        0 min,  0.004 sec (  4.480%)
 printout                       ...        0 min,  0.002 sec (  2.408%)

         :::::::::::::::::::::::::::::::::::::::::::::::::::::
         ::                     SUMMARY                     ::
         :::::::::::::::::::::::::::::::::::::::::::::::::::::
         :: total energy             -12.753315919358 Eh    ::
         :: gradient norm              0.353581221044 Eh/a0 ::
         :: HOMO-LUMO gap              0.143799290009 eV    ::
         ::.................................................::
         :: SCC energy               -12.754266198919 Eh    ::
         :: -> isotropic ES            0.036418697394 Eh    ::
         :: -> anisotropic ES          0.001254470612 Eh    ::
         :: -> anisotropic XC         -0.049673495531 Eh    ::
         :: -> dispersion             -0.015942643979 Eh    ::
         :: repulsion energy           0.001234519398 Eh    ::
         :: add. restraining           0.000000000000 Eh    ::
         :: total charge               0.000000000000 e     ::
         :::::::::::::::::::::::::::::::::::::::::::::::::::::


Property printout bound to 'properties.out'

           -------------------------------------------------
          | TOTAL ENERGY              -12.753315919358 Eh   |
          | GRADIENT NORM               0.353581221044 Eh/α |
          | HOMO-LUMO GAP               0.143799290009 eV   |
           -------------------------------------------------

------------------------------------------------------------------------
 * finished run on 2026/04/17 at 12:15:00.052     
------------------------------------------------------------------------
 total:
 * wall-time:     0 d,  0 h,  0 min,  0.099 sec
 *  cpu-time:     0 d,  0 h,  0 min,  0.099 sec
 * ratio c/w:     1.000 speedup
 SCF:
 * wall-time:     0 d,  0 h,  0 min,  0.089 sec
 *  cpu-time:     0 d,  0 h,  0 min,  0.089 sec
 * ratio c/w:     1.000 speedup


-------------------------   --------------------
FINAL SINGLE POINT ENERGY       -12.753315919360
-------------------------   --------------------


-------------
DIPOLE MOMENT
-------------
                                X             Y             Z
Total Dipole Moment    :     -0.00000      -0.00000       0.00000
                        -----------------------------------------
Magnitude (a.u.)       :      0.00000
Magnitude (Debye)      :      0.00000


------------------
CARTESIAN GRADIENT
------------------

   1   B   :   -0.054890598    0.046387419    0.000000000
   2   B   :    0.002494461   -0.099721099   -0.000000000
   3   B   :    0.004194876    0.108186444   -0.000000000
   4   B   :    0.003822418   -0.109715834   -0.000000000
   5   B   :    0.000768929    0.109127739    0.000000000
   6   B   :    0.000617353   -0.108215759   -0.000000000
   7   B   :   -0.000617373    0.108215765    0.000000000
   8   B   :   -0.000768885   -0.109127736   -0.000000000
   9   B   :   -0.003822372    0.109715791   -0.000000000
  10   B   :   -0.004194928   -0.108186387    0.000000000
  11   B   :   -0.002494461    0.099721065    0.000000000
  12   B   :    0.054890579   -0.046387408   -0.000000000

Difference to translation invariance:
           :    0.0000000000    0.0000000000   -0.0000000000

Difference to rotation invariance:
           :    0.0000000000    0.0000000000    0.0085841483

Norm of the Cartesian gradient     ...    0.3535812210
RMS gradient                       ...    0.0589302035
MAX gradient                       ...    0.1097158345
------------------------------------------------------------------------------
                         ORCA GEOMETRY RELAXATION STEP
------------------------------------------------------------------------------

Reading the OPT-File                    .... done
Getting information on internals        .... done
Copying old internal coords+grads       .... done
Making the new internal coordinates     .... (2022 redundants) done
Validating the new internal coordinates .... (2022 redundants) done
Calculating the B-matrix                .... done
Calculating the G,G- and P matrices     .... done
Transforming gradient to internals      .... done
Projecting the internal gradient        .... done
Number of atoms                         ....  12
Number of internal coordinates          ....  31
Current Energy                          ....   -12.753315919 Eh
Current gradient norm                   ....     0.353581221 Eh/bohr
Maximum allowed component of the step   ....  0.300
Current trust radius                    ....  0.300
Evaluating the initial hessian          ....  (Almloef) done
Projecting the Hessian                  .... done
Forming the augmented Hessian           .... done
Diagonalizing the augmented Hessian     .... done
Last element of RFO vector              ....  0.749777274
Lowest eigenvalues of augmented Hessian:
 -0.219880785  0.010000000  0.010000000  0.010000000  0.010000000
Length of the computed step             ....  0.882515798
Warning: the length of the step is outside the trust region - taking restricted step instead
The input lambda is                     ....     0.009000
   iter:   5  x=   -0.096112  g=  115.159984 f(x)=     5.518720
   iter:  10  x=   -0.703801  g=    0.483780 f(x)=     0.063938
   iter:  15  x=   -0.767761  g=    0.215830 f(x)=     0.000000
The output lambda is                    ....    -0.767761 (15 iterations)
The final length of the internal step   ....  0.300000000
Converting the step to Cartesian space:
 Initial RMS(Int)=    0.0538815906
Transforming coordinates:
 Iter   0:  RMS(Cart)=    0.0791206613 RMS(Int)=    0.0532332368
 Iter   5:  RMS(Cart)=    0.0000000090 RMS(Int)=    0.0000000046
done
Storing new coordinates                 .... done

                                .--------------------.
          ----------------------|Geometry convergence|-------------------------
          Item                value                   Tolerance       Converged
          ---------------------------------------------------------------------
          RMS gradient        0.0450930133            0.0000300000      NO
          MAX gradient        0.0738843093            0.0001000000      NO
          RMS step            0.0538815906            0.0006000000      NO
          MAX step            0.0910931307            0.0010000000      NO
          -------------------------------------------------------------------------
          ........................................................
          Max(Bonds)      0.0482      Max(Angles)    3.20
          Max(Dihed)        0.00      Max(Improp)    0.00
          ---------------------------------------------------------------------

The optimization has not yet converged - more geometry cycles are needed


    ---------------------------------------------------------------------------
                         Redundant Internal Coordinates
                            (Angstroem and degrees)

        Definition                    Value    dE/dq     Step     New-Value
    ----------------------------------------------------------------------------
     1. B(B   1,B   0)                2.1965  0.067589 -0.0429    2.1536   
     2. B(B   2,B   1)                2.1965  0.069647 -0.0442    2.1522   
     3. B(B   3,B   2)                2.1965  0.067478 -0.0428    2.1537   
     4. B(B   4,B   3)                2.1965  0.064127 -0.0406    2.1558   
     5. B(B   5,B   4)                2.1965  0.063512 -0.0402    2.1562   
     6. B(B   6,B   5)                2.1965  0.062450 -0.0395    2.1569   
     7. B(B   6,B   0)               10.4880  0.005325 -0.0052   10.4828   
     8. B(B   7,B   6)                2.1965  0.067749 -0.0442    2.1523   
     9. B(B   8,B   7)                2.1965  0.068365 -0.0446    2.1518   
    10. B(B   9,B   8)                2.1965  0.071716 -0.0468    2.1497   
    11. B(B  10,B   9)                2.1965  0.073884 -0.0482    2.1482   
    12. B(B  11,B  10)                2.1965  0.071826 -0.0469    2.1496   
    13. A(B   0,B   1,B   2)          105.47 -0.028996    2.07    107.54   
    14. A(B   1,B   2,B   3)          105.47 -0.028278    1.68    107.15   
    15. A(B   2,B   3,B   4)          105.47 -0.045968    3.08    108.55   
    16. A(B   3,B   4,B   5)          105.47 -0.036152    2.15    107.61   
    17. A(B   4,B   5,B   6)          105.47 -0.047928    3.20    108.67   
    18. A(B   5,B   6,B   7)          105.47 -0.034546    2.05    107.52   
    19. A(B   6,B   7,B   8)          105.47 -0.036152    2.15    107.61   
    20. A(B   7,B   8,B   9)          105.47 -0.032586    1.94    107.40   
    21. A(B   8,B   9,B  10)          105.47 -0.028278    1.68    107.15   
    22. A(B   9,B  10,B  11)          105.47 -0.015614    0.93    106.39   
    23. D(B   3,B   2,B   1,B   0)    180.00 -0.000000   -0.00    180.00   
    24. D(B   4,B   3,B   2,B   1)    180.00  0.000000   -0.00    180.00   
    25. D(B   5,B   4,B   3,B   2)    180.00 -0.000000   -0.00    180.00   
    26. D(B   6,B   5,B   4,B   3)    180.00  0.000000   -0.00    180.00   
    27. D(B   7,B   6,B   5,B   4)    180.00 -0.000000   -0.00    180.00   
    28. D(B   8,B   7,B   6,B   5)    180.00  0.000000   -0.00    180.00   
    29. D(B   9,B   8,B   7,B   6)    180.00 -0.000000   -0.00    180.00   
    30. D(B  10,B   9,B   8,B   7)    180.00  0.000000   -0.00    180.00   
    31. D(B  11,B  10,B   9,B   8)    180.00 -0.000000   -0.00    180.00   
    ----------------------------------------------------------------------------

Geometry step timings:
Preparation and reading OPT file:      0.000 s ( 4.492 %)
Internal coordinates            :      0.000 s ( 2.018 %)
B/P matrices and projection     :      0.000 s (23.503 %)
Hessian update/contruction      :      0.000 s (16.081 %)
Making the step                 :      0.000 s (22.786 %)
Converting the step to Cartesian:      0.000 s ( 3.255 %)
Storing new data                :      0.000 s ( 3.125 %)
Checking convergence            :      0.000 s ( 2.734 %)
Final printing                  :      0.000 s (21.875 %)
Total time                      :      0.002 s

Time for energy+gradient        :      0.111 s
Time for complete geometry iter :      0.114 s

         *************************************************************
         *                GEOMETRY OPTIMIZATION CYCLE   2            *
         *************************************************************
---------------------------------
CARTESIAN COORDINATES (ANGSTROEM)
---------------------------------
  B    -9.584721    0.528324    0.000000
  B    -7.804426   -0.683964   -0.000000
  B    -6.110802    0.644552    0.000000
  B    -4.340860   -0.582930   -0.000000
  B    -2.610216    0.703032    0.000000
  B    -0.860512   -0.557562    0.000000
  B     0.896392    0.694170    0.000000
  B     2.614972   -0.601463    0.000000
  B     4.369589    0.644239   -0.000000
  B     6.081307   -0.656174    0.000000
  B     7.827417    0.595252   -0.000000
  B     9.521860   -0.727474    0.000000

----------------------------
CARTESIAN COORDINATES (A.U.)
----------------------------
  NO LB    ZA    FRAG    MASS        X           Y           Z
   0 B   5.0000    0    10.810  -18.112499    0.998387    0.000000
   1 B   5.0000    0    10.810  -14.748227   -1.292505   -0.000000
   2 B   5.0000    0    10.810  -11.547743    1.218026    0.000000
   3 B   5.0000    0    10.810   -8.203037   -1.101578   -0.000000
   4 B   5.0000    0    10.810   -4.932593    1.328539    0.000000
   5 B   5.0000    0    10.810   -1.626133   -1.053640    0.000000
   6 B   5.0000    0    10.810    1.693936    1.311792    0.000000
   7 B   5.0000    0    10.810    4.941582   -1.136601    0.000000
   8 B   5.0000    0    10.810    8.257327    1.217435   -0.000000
   9 B   5.0000    0    10.810   11.492005   -1.239990    0.000000
  10 B   5.0000    0    10.810   14.791675    1.124864   -0.000000
  11 B   5.0000    0    10.810   17.993707   -1.374727    0.000000

      -----------------------------------------------------------      
     |                   =====================                   |     
     |                           x T B                           |     
     |                   =====================                   |     
     |                         S. Grimme                         |     
     |          Mulliken Center for Theoretical Chemistry        |     
     |                    University of Bonn                     |     
      -----------------------------------------------------------      

   * xtb version 6.6.1 (unknown) compiled by 'builduser@buildhost' on 2023-08-07

   xtb is free software: you can redistribute it and/or modify it under
   the terms of the GNU Lesser General Public License as published by
   the Free Software Foundation, either version 3 of the License, or
   (at your option) any later version.
   
   xtb is distributed in the hope that it will be useful,
   but WITHOUT ANY WARRANTY; without even the implied warranty of
   MERCHANTABILITY or FITNESS FOR A PARTICULAR PURPOSE.  See the
   GNU Lesser General Public License for more details.
   
   Cite this work as:
   * C. Bannwarth, E. Caldeweyher, S. Ehlert, A. Hansen, P. Pracht,
     J. Seibert, S. Spicher, S. Grimme, WIREs Comput. Mol. Sci., 2020, 11,
     e01493. DOI: 10.1002/wcms.1493
   
   for GFN2-xTB:
   * C. Bannwarth, S. Ehlert and S. Grimme., J. Chem. Theory Comput., 2019,
     15, 1652-1671. DOI: 10.1021/acs.jctc.8b01176
   for GFN1-xTB:
   * S. Grimme, C. Bannwarth, P. Shushkov, J. Chem. Theory Comput., 2017,
     13, 1989-2009. DOI: 10.1021/acs.jctc.7b00118
   for GFN0-xTB:
   * P. Pracht, E. Caldeweyher, S. Ehlert, S. Grimme, ChemRxiv, 2019, preprint.
     DOI: 10.26434/chemrxiv.8326202.v1
   for GFN-FF:
   * S. Spicher and S. Grimme, Angew. Chem. Int. Ed., 2020, 59, 15665-15673.
     DOI: 10.1002/anie.202004239
   
   for ALPB and GBSA implicit solvation:
   * S. Ehlert, M. Stahn, S. Spicher, S. Grimme, J. Chem. Theory Comput.,
     2021, 17, 4250-4261. DOI: 10.1021/acs.jctc.1c00471
   
   for DFT-D4:
   * E. Caldeweyher, C. Bannwarth and S. Grimme, J. Chem. Phys., 2017,
     147, 034112. DOI: 10.1063/1.4993215
   * E. Caldeweyher, S. Ehlert, A. Hansen, H. Neugebauer, S. Spicher,
     C. Bannwarth and S. Grimme, J. Chem. Phys., 2019, 150, 154122.
     DOI: 10.1063/1.5090222
   * E. Caldeweyher, J.-M. Mewes, S. Ehlert and S. Grimme, Phys. Chem. Chem. Phys.
     2020, 22, 8499-8512. DOI: 10.1039/D0CP00502A
   
   for sTDA-xTB:
   * S. Grimme and C. Bannwarth, J. Chem. Phys., 2016, 145, 054103.
     DOI: 10.1063/1.4959605
   
   in the mass-spec context:
   * V. Asgeirsson, C. Bauer and S. Grimme, Chem. Sci., 2017, 8, 4879.
     DOI: 10.1039/c7sc00601b
   * J. Koopman and S. Grimme, ACS Omega 2019, 4, 12, 15120-15133.
     DOI: 10.1021/acsomega.9b02011
   
   for metadynamics refer to:
   * S. Grimme, J. Chem. Theory Comput., 2019, 155, 2847-2862
     DOI: 10.1021/acs.jctc.9b00143
   
   for SPH calculations refer to:
   * S. Spicher and S. Grimme, J. Chem. Theory Comput., 2021, 17, 1701-1714
     DOI: 10.1021/acs.jctc.0c01306
   
   with help from (in alphabetical order)
   P. Atkinson, C. Bannwarth, F. Bohle, G. Brandenburg, E. Caldeweyher
   M. Checinski, S. Dohm, S. Ehlert, S. Ehrlich, I. Gerasimov, C. Hölzer
   A. Katbashev, J. Koopman, C. Lavigne, S. Lehtola, F. März, M. Müller,
   F. Musil, H. Neugebauer, J. Pisarek, C. Plett, P. Pracht, F. Pultar,
   J. Seibert, P. Shushkov, S. Spicher, M. Stahn, M. Steiner, T. Strunk,
   J. Stückrath, T. Rose, and J. Unsleber
   
 * started run on 2026/04/17 at 12:15:00.068     

           -------------------------------------------------
          |                Calculation Setup                |
           -------------------------------------------------

          program call               : /usr/bin/xtb zigzag_chain12_d1.90_m3_XTB.xyz --grad -c 0 -u 2 -P 1 --namespace zigzag_chain12_d1.90_m3 --input zigzag_chain12_d1.90_m3_XTB.input.tmp --acc 0.200000
          calculation namespace      : zigzag_chain12_d1.90_m3
          coordinate file            : zigzag_chain12_d1.90_m3_XTB.xyz
          omp threads                :                     1

   ID    Z sym.   atoms
    1    5 B      1-12

molecular fragmentation (1/2 indicates fragments):
122222222222
# atoms in fragment 1/2:     1    11
 fragment masses (1/2) :       10.81      118.92
CMA distance (Bohr)    :  19.789
constraining FC (au)   :  0.0500

           -------------------------------------------------
          |                 G F N 2 - x T B                 |
           -------------------------------------------------

        Reference                      10.1021/acs.jctc.8b01176
      * Hamiltonian:
        H0-scaling (s, p, d)           1.850000    2.230000    2.230000
        zeta-weighting                 0.500000
      * Dispersion:
        s8                             2.700000
        a1                             0.520000
        a2                             5.000000
        s9                             5.000000
      * Repulsion:
        kExp                           1.500000    1.000000
        rExp                           1.000000
      * Coulomb:
        alpha                          2.000000
        third order                    shell-resolved
        anisotropic                    true
        a3                             3.000000
        a5                             4.000000
        cn-shift                       1.200000
        cn-exp                         4.000000
        max-rad                        5.000000

q/qsh data taken from xtbrestart
CAMM data taken from xtbrestart

          ...................................................
          :                      SETUP                      :
          :.................................................:
          :  # basis functions                  48          :
          :  # atomic orbitals                  48          :
          :  # shells                           24          :
          :  # electrons                        36          :
          :  max. iterations                   250          :
          :  Hamiltonian                  GFN2-xTB          :
          :  restarted?                       true          :
          :  GBSA solvation                  false          :
          :  PC potential                    false          :
          :  electronic temp.          300.0000000     K    :
          :  accuracy                    0.2000000          :
          :  -> integral cutoff          0.3198970E+02      :
          :  -> integral neglect         0.2000000E-08      :
          :  -> SCF convergence          0.2000000E-06 Eh   :
          :  -> wf. convergence          0.2000000E-04 e    :
          :  Broyden damping             0.4000000          :
          ...................................................

 iter      E             dE          RMSdq      gap      omega  full diag
   1    -12.8303744 -0.128304E+02  0.128E+00    0.11       0.0  T
   2    -12.5497647  0.280610E+00  0.265E+00    0.13       1.0  T
   3    -11.7681805  0.781584E+00  0.503E+00    0.08       1.0  T
   4    -12.3933745 -0.625194E+00  0.388E+00    0.14       1.0  T
   5    -12.1315058  0.261869E+00  0.376E+00    0.15       1.0  T
   6    -12.3429653 -0.211460E+00  0.338E+00    0.11       1.0  T
   7    -12.5320428 -0.189077E+00  0.307E+00    0.12       1.0  T
   8    -12.6488862 -0.116843E+00  0.224E+00    0.11       1.0  T
   9    -12.6968361 -0.479499E-01  0.217E+00    0.14       1.0  T
  10    -12.7304890 -0.336529E-01  0.164E+00    0.10       1.0  T
  11    -12.8108960 -0.804070E-01  0.805E-01    0.12       1.0  T
  12    -12.8073014  0.359465E-02  0.863E-01    0.11       1.0  T
  13    -12.8186317 -0.113303E-01  0.661E-01    0.12       1.0  T
  14    -12.8192025 -0.570837E-03  0.652E-01    0.12       1.0  T
  15    -12.8206229 -0.142031E-02  0.631E-01    0.12       1.0  T
  16    -12.8207909 -0.168088E-03  0.624E-01    0.12       1.0  T
  17    -12.8215814 -0.790498E-03  0.598E-01    0.12       1.0  T
  18    -12.8234509 -0.186941E-02  0.535E-01    0.12       1.0  T
  19    -12.8296367 -0.618585E-02  0.317E-01    0.11       1.0  T
  20    -12.8284828  0.115391E-02  0.384E-01    0.12       1.0  T
  21    -12.8272424  0.124039E-02  0.406E-01    0.11       1.0  T
  22    -12.8307876 -0.354523E-02  0.252E-01    0.11       1.0  T
  23    -12.8290342  0.175346E-02  0.369E-01    0.11       1.0  T
  24    -12.8294394 -0.405180E-03  0.330E-01    0.11       1.0  T
  25    -12.8311763 -0.173697E-02  0.114E-01    0.11       1.0  T
  26    -12.8312165 -0.401366E-04  0.999E-02    0.11       1.0  T
  27    -12.8312411 -0.246585E-04  0.704E-02    0.11       1.0  T
  28    -12.8312996 -0.584276E-04  0.546E-02    0.11       1.0  T
  29    -12.8313276 -0.280024E-04  0.314E-02    0.11       1.0  T
  30    -12.8313396 -0.120889E-04  0.178E-02    0.11       1.6  T
  31    -12.8313409 -0.128003E-05  0.139E-02    0.11       2.1  T
  32    -12.8313431 -0.216002E-05  0.111E-02    0.11       2.6  T
  33    -12.8313462 -0.306800E-05  0.386E-03    0.11       7.5  T
  34    -12.8313464 -0.266678E-06  0.142E-03    0.11      20.3  T
  35    -12.8313465 -0.372364E-07  0.653E-04    0.11      44.2  T
  36    -12.8313465 -0.101793E-07  0.171E-04    0.11     168.4  T
  37    -12.8313465 -0.473445E-09  0.830E-05    0.11     348.0  T

   *** convergence criteria satisfied after 37 iterations ***

         #    Occupation            Energy/Eh            Energy/eV
      -------------------------------------------------------------
         1        2.0000           -0.3723778             -10.1329
       ...           ...                  ...                  ...
        13        2.0000           -0.2671678              -7.2700
        14        2.0000           -0.2670577              -7.2670
        15        1.9999           -0.2615395              -7.1169
        16        1.9762           -0.2564783              -6.9791
        17        1.8292           -0.2544517              -6.9240
        18        1.1357           -0.2513438              -6.8394
        19        0.9448           -0.2498498              -6.7988 (HOMO)
        20        0.1094           -0.2456804              -6.6853 (LUMO)
        21        0.0048           -0.2426065              -6.6017
        22        0.0000           -0.2369522              -6.4478
        23        0.0000           -0.2340069              -6.3677
        24                         -0.2253083              -6.1310
       ...                                ...                  ...
        48                          0.0110434               0.3005
      -------------------------------------------------------------
                  HL-Gap            0.0041694 Eh            0.1135 eV
             Fermi-level           -0.2503112 Eh           -6.8113 eV

 transition dipole moment (au) for excitation:          18          19
     X       Y       Z   
  -0.0000  -0.0000   0.0000  total (au/Debye):    0.000   0.000
 dE (eV)             :    0.041
 oscillator strength :  0.62760E-12

 SCC (total)                   0 d,  0 h,  0 min,  0.046 sec
 SCC setup                      ...        0 min,  0.000 sec (  0.319%)
 Dispersion                     ...        0 min,  0.000 sec (  0.274%)
 classical contributions        ...        0 min,  0.000 sec (  0.075%)
 integral evaluation            ...        0 min,  0.002 sec (  4.212%)
 iterations                     ...        0 min,  0.037 sec ( 80.842%)
 molecular gradient             ...        0 min,  0.004 sec (  8.367%)
 printout                       ...        0 min,  0.003 sec (  5.847%)

         :::::::::::::::::::::::::::::::::::::::::::::::::::::
         ::                     SUMMARY                     ::
         :::::::::::::::::::::::::::::::::::::::::::::::::::::
         :: total energy             -12.829798272333 Eh    ::
         :: gradient norm              0.363111406197 Eh/a0 ::
         :: HOMO-LUMO gap              0.113455277427 eV    ::
         ::.................................................::
         :: SCC energy               -12.831346466672 Eh    ::
         :: -> isotropic ES            0.041525580789 Eh    ::
         :: -> anisotropic ES          0.001235739278 Eh    ::
         :: -> anisotropic XC         -0.050496058761 Eh    ::
         :: -> dispersion             -0.013407231865 Eh    ::
         :: repulsion energy           0.001777007694 Eh    ::
         :: add. restraining           0.000000000000 Eh    ::
         :: total charge               0.000000000344 e     ::
         :::::::::::::::::::::::::::::::::::::::::::::::::::::


Property printout bound to 'properties.out'

           -------------------------------------------------
          | TOTAL ENERGY              -12.829798272333 Eh   |
          | GRADIENT NORM               0.363111406197 Eh/α |
          | HOMO-LUMO GAP               0.113455277427 eV   |
           -------------------------------------------------

------------------------------------------------------------------------
 * finished run on 2026/04/17 at 12:15:00.130     
------------------------------------------------------------------------
 total:
 * wall-time:     0 d,  0 h,  0 min,  0.062 sec
 *  cpu-time:     0 d,  0 h,  0 min,  0.062 sec
 * ratio c/w:     0.999 speedup
 SCF:
 * wall-time:     0 d,  0 h,  0 min,  0.046 sec
 *  cpu-time:     0 d,  0 h,  0 min,  0.046 sec
 * ratio c/w:     0.999 speedup


-------------------------   --------------------
FINAL SINGLE POINT ENERGY       -12.829798272330
-------------------------   --------------------


-------------
DIPOLE MOMENT
-------------
                                X             Y             Z
Total Dipole Moment    :      0.05300       0.00700       0.00000
                        -----------------------------------------
Magnitude (a.u.)       :      0.05346
Magnitude (Debye)      :      0.13589


------------------
CARTESIAN GRADIENT
------------------

   1   B   :   -0.058835587    0.045439521   -0.000000000
   2   B   :    0.004931658   -0.101270819    0.000000000
   3   B   :    0.000294697    0.110646647    0.000000000
   4   B   :    0.005757358   -0.111344386   -0.000000000
   5   B   :    0.000057346    0.111915119    0.000000000
   6   B   :    0.000269834   -0.110117241   -0.000000000
   7   B   :    0.001089975    0.111541883   -0.000000000
   8   B   :   -0.002534087   -0.112786016    0.000000000
   9   B   :   -0.002279916    0.113455180   -0.000000000
  10   B   :   -0.005134991   -0.111100356    0.000000000
  11   B   :    0.000009854    0.103251858    0.000000000
  12   B   :    0.056373860   -0.049631390   -0.000000000

Difference to translation invariance:
           :    0.0000000000    0.0000000000   -0.0000000000

Difference to rotation invariance:
           :   -0.0000000000   -0.0000000000   -0.0000000174

Norm of the Cartesian gradient     ...    0.3631114062
RMS gradient                       ...    0.0605185677
MAX gradient                       ...    0.1134551796
------------------------------------------------------------------------------
                         ORCA GEOMETRY RELAXATION STEP
------------------------------------------------------------------------------

Reading the OPT-File                    .... done
Getting information on internals        .... done
Copying old internal coords+grads       .... done
Making the new internal coordinates     .... (2022 redundants) done
Validating the new internal coordinates .... (2022 redundants) done
Calculating the B-matrix                .... done
Calculating the G,G- and P matrices     .... done
Transforming gradient to internals      .... done
Projecting the internal gradient        .... done
Number of atoms                         ....  12
Number of internal coordinates          ....  31
Current Energy                          ....   -12.829798272 Eh
Current gradient norm                   ....     0.363111406 Eh/bohr
Maximum allowed component of the step   ....  0.300
Current trust radius                    ....  0.300
Updating the Hessian (BFGS)             .... done
Forming the augmented Hessian           .... done
Diagonalizing the augmented Hessian     .... done
Last element of RFO vector              ....  0.747829391
Lowest eigenvalues of augmented Hessian:
 -0.229835248  0.010000000  0.010000000  0.010000000  0.010000000
Length of the computed step             ....  0.887757241
Warning: the length of the step is outside the trust region - taking restricted step instead
The input lambda is                     ....     0.009000
   iter:   5  x=   -0.095419  g=  127.686137 f(x)=     6.081066
   iter:  10  x=   -0.721939  g=    0.509154 f(x)=     0.073354
   iter:  15  x=   -0.800934  g=    0.207797 f(x)=     0.000000
The output lambda is                    ....    -0.800934 (15 iterations)
The final length of the internal step   ....  0.300000000
Converting the step to Cartesian space:
 Initial RMS(Int)=    0.0538815906
Transforming coordinates:
 Iter   0:  RMS(Cart)=    0.0890460594 RMS(Int)=    0.0530830853
 Iter   5:  RMS(Cart)=    0.0000000199 RMS(Int)=    0.0000000109
done
Storing new coordinates                 .... done
The predicted energy change is          ....    -0.075098427
Previously predicted energy change      ....    -0.072162727
Actually observed energy change         ....    -0.076482353
Ratio of predicted to observed change   ....     1.059859516
New trust radius                        ....     0.450000000

                                .--------------------.
          ----------------------|Geometry convergence|-------------------------
          Item                value                   Tolerance       Converged
          ---------------------------------------------------------------------
          Energy change      -0.0764823530            0.0000010000      NO
          RMS gradient        0.0468263425            0.0000300000      NO
          MAX gradient        0.0770647805            0.0001000000      NO
          RMS step            0.0538815906            0.0006000000      NO
          MAX step            0.0912810854            0.0010000000      NO
          -------------------------------------------------------------------------
          ........................................................
          Max(Bonds)      0.0483      Max(Angles)    3.11
          Max(Dihed)        0.00      Max(Improp)    0.00
          ---------------------------------------------------------------------

The optimization has not yet converged - more geometry cycles are needed


    ---------------------------------------------------------------------------
                         Redundant Internal Coordinates
                            (Angstroem and degrees)

        Definition                    Value    dE/dq     Step     New-Value
    ----------------------------------------------------------------------------
     1. B(B   1,B   0)                2.1539  0.068280 -0.0422    2.1117   
     2. B(B   2,B   1)                2.1525  0.071097 -0.0440    2.1085   
     3. B(B   3,B   2)                2.1539  0.069400 -0.0429    2.1110   
     4. B(B   4,B   3)                2.1561  0.066238 -0.0409    2.1152   
     5. B(B   5,B   4)                2.1565  0.065340 -0.0404    2.1162   
     6. B(B   6,B   5)                2.1572  0.064494 -0.0398    2.1174   
     7. B(B   6,B   0)               10.4824  0.007249 -0.0055   10.4769   
     8. B(B   7,B   6)                2.1523  0.071278 -0.0447    2.1076   
     9. B(B   8,B   7)                2.1518  0.072333 -0.0453    2.1065   
    10. B(B   9,B   8)                2.1497  0.075580 -0.0474    2.1023   
    11. B(B  10,B   9)                2.1482  0.077065 -0.0483    2.0999   
    12. B(B  11,B  10)                2.1496  0.074978 -0.0470    2.1026   
    13. A(B   0,B   1,B   2)          107.64 -0.035076    2.19    109.82   
    14. A(B   1,B   2,B   3)          107.15 -0.026114    1.50    108.65   
    15. A(B   2,B   3,B   4)          108.64 -0.050072    3.05    111.69   
    16. A(B   3,B   4,B   5)          107.61 -0.035757    2.05    109.67   
    17. A(B   4,B   5,B   6)          108.76 -0.051166    3.11    111.87   
    18. A(B   5,B   6,B   7)          107.52 -0.034893    2.00    109.52   
    19. A(B   6,B   7,B   8)          107.61 -0.035917    2.06    109.68   
    20. A(B   7,B   8,B   9)          107.40 -0.034408    1.98    109.38   
    21. A(B   8,B   9,B  10)          107.15 -0.025581    1.47    108.62   
    22. A(B   9,B  10,B  11)          106.39 -0.018010    1.03    107.43   
    23. D(B   3,B   2,B   1,B   0)    180.00  0.000000   -0.00    180.00   
    24. D(B   4,B   3,B   2,B   1)    180.00  0.000000   -0.00    180.00   
    25. D(B   5,B   4,B   3,B   2)    180.00  0.000000   -0.00    180.00   
    26. D(B   6,B   5,B   4,B   3)    180.00  0.000000   -0.00    180.00   
    27. D(B   7,B   6,B   5,B   4)    180.00  0.000000   -0.00    180.00   
    28. D(B   8,B   7,B   6,B   5)    180.00  0.000000   -0.00    180.00   
    29. D(B   9,B   8,B   7,B   6)    180.00  0.000000   -0.00    180.00   
    30. D(B  10,B   9,B   8,B   7)    180.00  0.000000   -0.00    180.00   
    31. D(B  11,B  10,B   9,B   8)    180.00  0.000000   -0.00    180.00   
    ----------------------------------------------------------------------------

Geometry step timings:
Preparation and reading OPT file:      0.000 s ( 1.457 %)
Internal coordinates            :      0.000 s ( 1.114 %)
B/P matrices and projection     :      0.000 s (16.452 %)
Hessian update/contruction      :      0.001 s (45.287 %)
Making the step                 :      0.000 s (15.596 %)
Converting the step to Cartesian:      0.000 s ( 2.228 %)
Storing new data                :      0.000 s ( 2.871 %)
Checking convergence            :      0.000 s ( 2.742 %)
Final printing                  :      0.000 s (12.254 %)
Total time                      :      0.002 s

Time for energy+gradient        :      0.073 s
Time for complete geometry iter :      0.076 s

         *************************************************************
         *                GEOMETRY OPTIMIZATION CYCLE   3            *
         *************************************************************
---------------------------------
CARTESIAN COORDINATES (ANGSTROEM)
---------------------------------
  B    -9.548755    0.368770    0.000000
  B    -7.729548   -0.705388   -0.000000
  B    -6.097253    0.630916    0.000000
  B    -4.306791   -0.489302   -0.000000
  B    -2.594238    0.753849    0.000000
  B    -0.846110   -0.440447   -0.000000
  B     0.920764    0.728202   -0.000000
  B     2.604034   -0.540054    0.000000
  B     4.364121    0.617307   -0.000000
  B     6.036557   -0.656499    0.000000
  B     7.775644    0.520506   -0.000000
  B     9.421575   -0.787859    0.000000

----------------------------
CARTESIAN COORDINATES (A.U.)
----------------------------
  NO LB    ZA    FRAG    MASS        X           Y           Z
   0 B   5.0000    0    10.810  -18.044531    0.696875    0.000000
   1 B   5.0000    0    10.810  -14.606729   -1.332990   -0.000000
   2 B   5.0000    0    10.810  -11.522139    1.192258    0.000000
   3 B   5.0000    0    10.810   -8.138655   -0.924646   -0.000000
   4 B   5.0000    0    10.810   -4.902398    1.424568    0.000000
   5 B   5.0000    0    10.810   -1.598916   -0.832324   -0.000000
   6 B   5.0000    0    10.810    1.739993    1.376102   -0.000000
   7 B   5.0000    0    10.810    4.920911   -1.020554    0.000000
   8 B   5.0000    0    10.810    8.246993    1.166540   -0.000000
   9 B   5.0000    0    10.810   11.407439   -1.240604    0.000000
  10 B   5.0000    0    10.810   14.693838    0.983613   -0.000000
  11 B   5.0000    0    10.810   17.804197   -1.488837    0.000000

      -----------------------------------------------------------      
     |                   =====================                   |     
     |                           x T B                           |     
     |                   =====================                   |     
     |                         S. Grimme                         |     
     |          Mulliken Center for Theoretical Chemistry        |     
     |                    University of Bonn                     |     
      -----------------------------------------------------------      

   * xtb version 6.6.1 (unknown) compiled by 'builduser@buildhost' on 2023-08-07

   xtb is free software: you can redistribute it and/or modify it under
   the terms of the GNU Lesser General Public License as published by
   the Free Software Foundation, either version 3 of the License, or
   (at your option) any later version.
   
   xtb is distributed in the hope that it will be useful,
   but WITHOUT ANY WARRANTY; without even the implied warranty of
   MERCHANTABILITY or FITNESS FOR A PARTICULAR PURPOSE.  See the
   GNU Lesser General Public License for more details.
   
   Cite this work as:
   * C. Bannwarth, E. Caldeweyher, S. Ehlert, A. Hansen, P. Pracht,
     J. Seibert, S. Spicher, S. Grimme, WIREs Comput. Mol. Sci., 2020, 11,
     e01493. DOI: 10.1002/wcms.1493
   
   for GFN2-xTB:
   * C. Bannwarth, S. Ehlert and S. Grimme., J. Chem. Theory Comput., 2019,
     15, 1652-1671. DOI: 10.1021/acs.jctc.8b01176
   for GFN1-xTB:
   * S. Grimme, C. Bannwarth, P. Shushkov, J. Chem. Theory Comput., 2017,
     13, 1989-2009. DOI: 10.1021/acs.jctc.7b00118
   for GFN0-xTB:
   * P. Pracht, E. Caldeweyher, S. Ehlert, S. Grimme, ChemRxiv, 2019, preprint.
     DOI: 10.26434/chemrxiv.8326202.v1
   for GFN-FF:
   * S. Spicher and S. Grimme, Angew. Chem. Int. Ed., 2020, 59, 15665-15673.
     DOI: 10.1002/anie.202004239
   
   for ALPB and GBSA implicit solvation:
   * S. Ehlert, M. Stahn, S. Spicher, S. Grimme, J. Chem. Theory Comput.,
     2021, 17, 4250-4261. DOI: 10.1021/acs.jctc.1c00471
   
   for DFT-D4:
   * E. Caldeweyher, C. Bannwarth and S. Grimme, J. Chem. Phys., 2017,
     147, 034112. DOI: 10.1063/1.4993215
   * E. Caldeweyher, S. Ehlert, A. Hansen, H. Neugebauer, S. Spicher,
     C. Bannwarth and S. Grimme, J. Chem. Phys., 2019, 150, 154122.
     DOI: 10.1063/1.5090222
   * E. Caldeweyher, J.-M. Mewes, S. Ehlert and S. Grimme, Phys. Chem. Chem. Phys.
     2020, 22, 8499-8512. DOI: 10.1039/D0CP00502A
   
   for sTDA-xTB:
   * S. Grimme and C. Bannwarth, J. Chem. Phys., 2016, 145, 054103.
     DOI: 10.1063/1.4959605
   
   in the mass-spec context:
   * V. Asgeirsson, C. Bauer and S. Grimme, Chem. Sci., 2017, 8, 4879.
     DOI: 10.1039/c7sc00601b
   * J. Koopman and S. Grimme, ACS Omega 2019, 4, 12, 15120-15133.
     DOI: 10.1021/acsomega.9b02011
   
   for metadynamics refer to:
   * S. Grimme, J. Chem. Theory Comput., 2019, 155, 2847-2862
     DOI: 10.1021/acs.jctc.9b00143
   
   for SPH calculations refer to:
   * S. Spicher and S. Grimme, J. Chem. Theory Comput., 2021, 17, 1701-1714
     DOI: 10.1021/acs.jctc.0c01306
   
   with help from (in alphabetical order)
   P. Atkinson, C. Bannwarth, F. Bohle, G. Brandenburg, E. Caldeweyher
   M. Checinski, S. Dohm, S. Ehlert, S. Ehrlich, I. Gerasimov, C. Hölzer
   A. Katbashev, J. Koopman, C. Lavigne, S. Lehtola, F. März, M. Müller,
   F. Musil, H. Neugebauer, J. Pisarek, C. Plett, P. Pracht, F. Pultar,
   J. Seibert, P. Shushkov, S. Spicher, M. Stahn, M. Steiner, T. Strunk,
   J. Stückrath, T. Rose, and J. Unsleber
   
 * started run on 2026/04/17 at 12:15:00.144     

           -------------------------------------------------
          |                Calculation Setup                |
           -------------------------------------------------

          program call               : /usr/bin/xtb zigzag_chain12_d1.90_m3_XTB.xyz --grad -c 0 -u 2 -P 1 --namespace zigzag_chain12_d1.90_m3 --input zigzag_chain12_d1.90_m3_XTB.input.tmp --acc 0.200000
          calculation namespace      : zigzag_chain12_d1.90_m3
          coordinate file            : zigzag_chain12_d1.90_m3_XTB.xyz
          omp threads                :                     1

   ID    Z sym.   atoms
    1    5 B      1-12

molecular fragmentation (1/2 indicates fragments):
122222222222
# atoms in fragment 1/2:     1    11
 fragment masses (1/2) :       10.81      118.92
CMA distance (Bohr)    :  19.700
constraining FC (au)   :  0.0500

           -------------------------------------------------
          |                 G F N 2 - x T B                 |
           -------------------------------------------------

        Reference                      10.1021/acs.jctc.8b01176
      * Hamiltonian:
        H0-scaling (s, p, d)           1.850000    2.230000    2.230000
        zeta-weighting                 0.500000
      * Dispersion:
        s8                             2.700000
        a1                             0.520000
        a2                             5.000000
        s9                             5.000000
      * Repulsion:
        kExp                           1.500000    1.000000
        rExp                           1.000000
      * Coulomb:
        alpha                          2.000000
        third order                    shell-resolved
        anisotropic                    true
        a3                             3.000000
        a5                             4.000000
        cn-shift                       1.200000
        cn-exp                         4.000000
        max-rad                        5.000000

q/qsh data taken from xtbrestart
CAMM data taken from xtbrestart

          ...................................................
          :                      SETUP                      :
          :.................................................:
          :  # basis functions                  48          :
          :  # atomic orbitals                  48          :
          :  # shells                           24          :
          :  # electrons                        36          :
          :  max. iterations                   250          :
          :  Hamiltonian                  GFN2-xTB          :
          :  restarted?                       true          :
          :  GBSA solvation                  false          :
          :  PC potential                    false          :
          :  electronic temp.          300.0000000     K    :
          :  accuracy                    0.2000000          :
          :  -> integral cutoff          0.3198970E+02      :
          :  -> integral neglect         0.2000000E-08      :
          :  -> SCF convergence          0.2000000E-06 Eh   :
          :  -> wf. convergence          0.2000000E-04 e    :
          :  Broyden damping             0.4000000          :
          ...................................................

 iter      E             dE          RMSdq      gap      omega  full diag
   1    -12.9104970 -0.129105E+02  0.145E+00    0.04       0.0  T
   2    -12.5292272  0.381270E+00  0.295E+00    0.06       1.0  T
   3    -11.3000898  0.122914E+01  0.603E+00    0.02       1.0  T
   4    -12.1290430 -0.828953E+00  0.500E+00    0.07       1.0  T
   5    -12.1480182 -0.189753E-01  0.389E+00    0.08       1.0  T
   6    -12.2442760 -0.962578E-01  0.402E+00    0.07       1.0  T
   7    -12.4556945 -0.211418E+00  0.379E+00    0.05       1.0  T
   8    -12.5677395 -0.112045E+00  0.304E+00    0.05       1.0  T
   9    -12.5508096  0.169299E-01  0.327E+00    0.11       1.0  T
  10    -12.7419431 -0.191133E+00  0.211E+00    0.04       1.0  T
  11    -12.8779745 -0.136031E+00  0.108E+00    0.04       1.0  T
  12    -12.8876965 -0.972195E-02  0.902E-01    0.04       1.0  T
  13    -12.9002851 -0.125886E-01  0.736E-01    0.05       1.0  T
  14    -12.9022702 -0.198512E-02  0.672E-01    0.05       1.0  T
  15    -12.9033843 -0.111403E-02  0.614E-01    0.05       1.0  T
  16    -12.9032447  0.139521E-03  0.605E-01    0.05       1.0  T
  17    -12.9029575  0.287189E-03  0.561E-01    0.05       1.0  T
  18    -12.9019034  0.105412E-02  0.536E-01    0.05       1.0  T
  19    -12.9085049 -0.660143E-02  0.401E-01    0.05       1.0  T
  20    -12.9110293 -0.252445E-02  0.312E-01    0.05       1.0  T
  21    -12.9108406  0.188763E-03  0.321E-01    0.05       1.0  T
  22    -12.9107891  0.514137E-04  0.322E-01    0.05       1.0  T
  23    -12.9086973  0.209184E-02  0.405E-01    0.05       1.0  T
  24    -12.9107484 -0.205107E-02  0.265E-01    0.05       1.0  T
  25    -12.9118542 -0.110587E-02  0.132E-01    0.05       1.0  T
  26    -12.9118316  0.225817E-04  0.121E-01    0.05       1.0  T
  27    -12.9117691  0.625172E-04  0.109E-01    0.05       1.0  T
  28    -12.9118653 -0.961393E-04  0.852E-02    0.05       1.0  T
  29    -12.9119075 -0.422112E-04  0.634E-02    0.05       1.0  T
  30    -12.9119552 -0.477490E-04  0.387E-02    0.05       1.0  T
  31    -12.9119725 -0.173050E-04  0.198E-02    0.05       1.5  T
  32    -12.9119795 -0.699992E-05  0.946E-03    0.05       3.1  T
  33    -12.9119805 -0.100884E-05  0.659E-03    0.05       4.4  T
[...]
        alpha                          2.000000
        third order                    shell-resolved
        anisotropic                    true
        a3                             3.000000
        a5                             4.000000
        cn-shift                       1.200000
        cn-exp                         4.000000
        max-rad                        5.000000

q/qsh data taken from xtbrestart
CAMM data taken from xtbrestart

          ...................................................
          :                      SETUP                      :
          :.................................................:
          :  # basis functions                  48          :
          :  # atomic orbitals                  48          :
          :  # shells                           24          :
          :  # electrons                        36          :
          :  max. iterations                   250          :
          :  Hamiltonian                  GFN2-xTB          :
          :  restarted?                       true          :
          :  GBSA solvation                  false          :
          :  PC potential                    false          :
          :  electronic temp.          300.0000000     K    :
          :  accuracy                    0.2000000          :
          :  -> integral cutoff          0.3198970E+02      :
          :  -> integral neglect         0.2000000E-08      :
          :  -> SCF convergence          0.2000000E-06 Eh   :
          :  -> wf. convergence          0.2000000E-04 e    :
          :  Broyden damping             0.4000000          :
          ...................................................

 iter      E             dE          RMSdq      gap      omega  full diag
   1    -14.3498688 -0.143499E+02  0.313E-01    0.44       0.0  T
   2    -14.3495142  0.354555E-03  0.211E-01    0.43       1.0  T
   3    -14.3055952  0.439191E-01  0.975E-01    0.35       1.0  T
   4    -14.3430082 -0.374131E-01  0.411E-01    0.44       1.0  T
   5    -14.3494906 -0.648232E-02  0.111E-01    0.43       1.0  T
   6    -14.3497728 -0.282279E-03  0.573E-02    0.43       1.0  T
   7    -14.3498559 -0.830652E-04  0.277E-02    0.44       1.0  T
   8    -14.3498715 -0.156112E-04  0.171E-02    0.44       1.7  T
   9    -14.3498657  0.581790E-05  0.194E-02    0.44       1.5  T
  10    -14.3498790 -0.132822E-04  0.705E-03    0.44       4.1  T
  11    -14.3498796 -0.639577E-06  0.350E-03    0.44       8.2  T
  12    -14.3498800 -0.362819E-06  0.143E-03    0.44      20.2  T
  13    -14.3498800 -0.514149E-07  0.998E-04    0.44      28.9  T
  14    -14.3498801 -0.216124E-07  0.303E-04    0.44      95.3  T
  15    -14.3498801 -0.177877E-08  0.125E-04    0.44     231.5  T
  16    -14.3498801 -0.103427E-09  0.983E-05    0.44     293.8  T

   *** convergence criteria satisfied after 16 iterations ***

         #    Occupation            Energy/Eh            Energy/eV
      -------------------------------------------------------------
         1        2.0000           -0.3917177             -10.6592
       ...           ...                  ...                  ...
        13        2.0000           -0.2769295              -7.5356
        14        2.0000           -0.2744836              -7.4691
        15        2.0000           -0.2744820              -7.4690
        16        1.9997           -0.2622393              -7.1359
        17        1.9997           -0.2622300              -7.1356
        18        1.0001           -0.2467679              -6.7149
        19        1.0001           -0.2467572              -6.7146 (HOMO)
        20        0.0002           -0.2307043              -6.2778 (LUMO)
        21        0.0002           -0.2306262              -6.2757
        22                         -0.2231179              -6.0713
        23                         -0.2231100              -6.0711
        24                         -0.1880152              -5.1162
       ...                                ...                  ...
        48                          1.4417521              39.2321
      -------------------------------------------------------------
                  HL-Gap            0.0160529 Eh            0.4368 eV
             Fermi-level           -0.2466065 Eh           -6.7105 eV

 transition dipole moment (au) for excitation:          18          19
     X       Y       Z   
  -0.0001   0.0031  -0.0016  total (au/Debye):    0.004   0.009
 dE (eV)             :    0.000
 oscillator strength :  0.12427E-09

 SCC (total)                   0 d,  0 h,  0 min,  0.025 sec
 SCC setup                      ...        0 min,  0.000 sec (  0.559%)
 Dispersion                     ...        0 min,  0.000 sec (  0.362%)
 classical contributions        ...        0 min,  0.000 sec (  0.173%)
 integral evaluation            ...        0 min,  0.002 sec (  6.795%)
 iterations                     ...        0 min,  0.016 sec ( 61.781%)
 molecular gradient             ...        0 min,  0.005 sec ( 18.102%)
 printout                       ...        0 min,  0.003 sec ( 12.112%)

         :::::::::::::::::::::::::::::::::::::::::::::::::::::
         ::                     SUMMARY                     ::
         :::::::::::::::::::::::::::::::::::::::::::::::::::::
         :: total energy             -14.059271982750 Eh    ::
         :: gradient norm              0.001802957795 Eh/a0 ::
         :: HOMO-LUMO gap              0.436821598058 eV    ::
         ::.................................................::
         :: SCC energy               -14.349880059527 Eh    ::
         :: -> isotropic ES            0.112120583065 Eh    ::
         :: -> anisotropic ES          0.000569532389 Eh    ::
         :: -> anisotropic XC         -0.049641692891 Eh    ::
         :: -> dispersion             -0.009484327233 Eh    ::
         :: repulsion energy           0.290823050295 Eh    ::
         :: add. restraining           0.000000000000 Eh    ::
         :: total charge              -0.000000000015 e     ::
         :::::::::::::::::::::::::::::::::::::::::::::::::::::


Property printout bound to 'properties.out'

           -------------------------------------------------
          | TOTAL ENERGY              -14.059271982750 Eh   |
          | GRADIENT NORM               0.001802957795 Eh/α |
          | HOMO-LUMO GAP               0.436821598058 eV   |
           -------------------------------------------------

------------------------------------------------------------------------
 * finished run on 2026/04/17 at 12:15:04.005     
------------------------------------------------------------------------
 total:
 * wall-time:     0 d,  0 h,  0 min,  0.037 sec
 *  cpu-time:     0 d,  0 h,  0 min,  0.037 sec
 * ratio c/w:     0.999 speedup
 SCF:
 * wall-time:     0 d,  0 h,  0 min,  0.025 sec
 *  cpu-time:     0 d,  0 h,  0 min,  0.025 sec
 * ratio c/w:     1.000 speedup


-------------------------   --------------------
FINAL SINGLE POINT ENERGY       -14.059271982750
-------------------------   --------------------


-------------
DIPOLE MOMENT
-------------
                                X             Y             Z
Total Dipole Moment    :     -0.00500      -0.10300      -0.01100
                        -----------------------------------------
Magnitude (a.u.)       :      0.10371
Magnitude (Debye)      :      0.26360


------------------
CARTESIAN GRADIENT
------------------

   1   B   :   -0.000271101    0.000022859   -0.000023681
   2   B   :    0.000053092   -0.000077522   -0.000019634
   3   B   :   -0.000603150    0.000177179    0.000312626
   4   B   :    0.000505248   -0.000297525   -0.000441845
   5   B   :    0.000378989    0.000177649    0.000340389
   6   B   :   -0.000001023   -0.000086970   -0.000482303
   7   B   :    0.000070209   -0.000279324    0.000408816
   8   B   :   -0.000409458    0.000775083   -0.000118150
   9   B   :    0.000106534   -0.000271474    0.000073616
  10   B   :    0.000229552   -0.000087098   -0.000172903
  11   B   :    0.000333493   -0.000158946    0.000263175
  12   B   :   -0.000392383    0.000106088   -0.000140106

Difference to translation invariance:
           :   -0.0000000000    0.0000000000   -0.0000000000

Difference to rotation invariance:
           :    0.0000000001    0.0000000007   -0.0000000081

Norm of the Cartesian gradient     ...    0.0018029578
RMS gradient                       ...    0.0003004930
MAX gradient                       ...    0.0007750834
------------------------------------------------------------------------------
                         ORCA GEOMETRY RELAXATION STEP
------------------------------------------------------------------------------

Reading the OPT-File                    .... done
Getting information on internals        .... done
Copying old internal coords+grads       .... done
Making the new internal coordinates     .... (2022 redundants) done
Validating the new internal coordinates .... (2022 redundants) done
Calculating the B-matrix                .... done
Calculating the G,G- and P matrices     .... done
Transforming gradient to internals      .... done
Projecting the internal gradient        .... done
Number of atoms                         ....  12
Number of internal coordinates          ....  31
Current Energy                          ....   -14.059271983 Eh
Current gradient norm                   ....     0.001802958 Eh/bohr
Maximum allowed component of the step   ....  0.300
Current trust radius                    ....  0.300
Evaluating the initial hessian          ....  (Almloef) done
Projecting the Hessian                  .... done
Forming the augmented Hessian           .... done
Diagonalizing the augmented Hessian     .... done
Last element of RFO vector              ....  0.999995773
Lowest eigenvalues of augmented Hessian:
 -0.000004037  0.420342771  0.420342877  0.420637308  0.420637609
Length of the computed step             ....  0.002907447
The final length of the internal step   ....  0.002907447
Converting the step to Cartesian space:
 Initial RMS(Int)=    0.0005221928
Transforming coordinates:
 Iter   0:  RMS(Cart)=    0.0031060464 RMS(Int)=    0.0004619655
 Iter   5:  RMS(Cart)=    0.0000638783 RMS(Int)=    0.0000107332
 Iter  10:  RMS(Cart)=    0.0000072920 RMS(Int)=    0.0000012664
 Iter  15:  RMS(Cart)=    0.0000008345 RMS(Int)=    0.0000001496
 Iter  20:  RMS(Cart)=    0.0000000957 RMS(Int)=    0.0000000177
done
Storing new coordinates                 .... done

                                .--------------------.
          ----------------------|Geometry convergence|-------------------------
          Item                value                   Tolerance       Converged
          ---------------------------------------------------------------------
          RMS gradient        0.0002522066            0.0000300000      NO
          MAX gradient        0.0008239918            0.0001000000      NO
          RMS step            0.0005221928            0.0006000000      YES
          MAX step            0.0016406443            0.0010000000      NO
          -------------------------------------------------------------------------
          ........................................................
          Max(Bonds)      0.0009      Max(Angles)    0.07
          Max(Dihed)        0.00      Max(Improp)    0.00
          ---------------------------------------------------------------------

The optimization has not yet converged - more geometry cycles are needed


    ---------------------------------------------------------------------------
                         Redundant Internal Coordinates
                            (Angstroem and degrees)

        Definition                    Value    dE/dq     Step     New-Value
    ----------------------------------------------------------------------------
     1. B(B   1,B   0)                1.4307  0.000270 -0.0002    1.4305   
     2. B(B   2,B   1)                1.5089  0.000218 -0.0002    1.5087   
     3. B(B   3,B   2)                1.5294  0.000824 -0.0009    1.5286   
     4. B(B   4,B   3)                1.5147  0.000320 -0.0003    1.5144   
     5. B(B   5,B   4)                1.5165 -0.000064  0.0001    1.5165   
     6. B(B   6,B   5)                1.5226 -0.000053  0.0001    1.5226   
     7. B(B   7,B   6)                1.5163 -0.000137  0.0001    1.5165   
     8. B(B   8,B   7)                1.5147  0.000305 -0.0003    1.5144   
     9. B(B   9,B   8)                1.5284  0.000183 -0.0002    1.5282   
    10. B(B  10,B   9)                1.5086 -0.000055  0.0001    1.5086   
    11. B(B  11,B  10)                1.4300 -0.000396  0.0003    1.4303   
    12. L(B   0,B   1,B   2, 2)       179.79 -0.000027    0.00    179.80   
    13. L(B   0,B   1,B   2, 1)       179.82 -0.000026    0.00    179.83   
    14. L(B   1,B   2,B   3, 1)       179.82 -0.000074    0.01    179.83   
    15. L(B   1,B   2,B   3, 2)       179.99  0.000025   -0.00    179.99   
    16. L(B   2,B   3,B   4, 2)       180.96  0.000179   -0.02    180.93   
    17. L(B   2,B   3,B   4, 1)       179.45 -0.000111    0.02    179.46   
    18. L(B   3,B   4,B   5, 1)       180.20  0.000055   -0.01    180.20   
    19. L(B   3,B   4,B   5, 2)       180.52  0.000006   -0.00    180.52   
    20. L(B   4,B   5,B   6, 2)       180.94  0.000172   -0.02    180.91   
    21. L(B   4,B   5,B   6, 1)       180.39  0.000053   -0.01    180.39   
    22. L(B   5,B   6,B   7,B   8, 2) 172.06 -0.000008    0.00    172.06   
    23. L(B   5,B   6,B   7,B   8, 1) 178.44 -0.000502    0.07    178.51   
    24. L(B   6,B   7,B   8, 2)       179.43 -0.000096    0.01    179.45   
    25. L(B   6,B   7,B   8, 1)       183.42  0.000503   -0.07    183.35   
    26. L(B   7,B   8,B   9,B   6, 1) 178.81 -0.000355    0.05    178.86   
    27. L(B   7,B   8,B   9,B   6, 2) 175.17 -0.000003    0.00    175.17   
    28. L(B   8,B   9,B  10, 2)       179.89 -0.000027    0.00    179.89   
    29. L(B   8,B   9,B  10, 1)       179.93 -0.000017    0.00    179.93   
    30. L(B   9,B  10,B  11, 2)       178.95 -0.000150    0.02    178.97   
    31. L(B   9,B  10,B  11, 1)       179.48 -0.000075    0.01    179.49   
    ----------------------------------------------------------------------------

Geometry step timings:
Preparation and reading OPT file:      0.000 s ( 1.550 %)
Internal coordinates            :      0.000 s ( 1.459 %)
B/P matrices and projection     :      0.000 s (16.507 %)
Hessian update/contruction      :      0.000 s (17.875 %)
Making the step                 :      0.000 s (11.947 %)
Converting the step to Cartesian:      0.000 s (13.269 %)
Storing new data                :      0.000 s ( 2.690 %)
Checking convergence            :      0.000 s ( 1.961 %)
Final printing                  :      0.001 s (32.741 %)
Total time                      :      0.002 s

Time for energy+gradient        :      0.056 s
Time for complete geometry iter :      0.060 s




    ----------------------------------------------------------------------------
                                  WARNING !!!
       The optimization did not converge but reached the maximum number of
       optimization cycles.
       Please check your results very carefully.
    ----------------------------------------------------------------------------



--------------------------------
SUGGESTED CITATIONS FOR THIS RUN
--------------------------------

Below you find a list of papers that are relevant to this ORCA run
We neither can nor want to force you to cite these papers, but we appreciate if you do
You receive ORCA, which is the product of decades of hard work by many enthusiastic individuals, for free
The only thing we kindly ask in return is that you cite our papers,
We deeply appreciate it, if you show your appreciation for ORCA by not just citing the generic ORCA reference.

Please note that relegating all ORCA citations to the supporting information does *not* help us.
SI sections are not indexed - citations you put there will not count into any citation statistics
But we need these citations in order to attract the funding resources that allow us to do what we are doing

Therefore, if you are a happy ORCA user, please consider citing a few of the papers listed below in the main body of your paper

In addition to the list printed below, the program has created the file zigzag_chain12_d1.90_m3.bibtex that contains the list in bibtex format
You can import this file easily into all common literature databanks and citation aid programs

It goes without saying that in many instances, there are alternative algorithms to achieve similar
results as the ones you have gotten from ORCA. It is, of course, also the case that in some instances
ORCA just re-implements algorithms worked out by others. We are fully aware of that and we are also
fully appreciative of our colleagues work. Hence this citation list should not be read as indicating
that the listed papers, which are focused on our own work, are the only ones worth citing. It simply
meant to make it easier for users to cite ORCA specific papers. It is not a substitute for doing your
own literature research and citing the relevant literature in a scientifically appropriate manner.

List of essential papers. We consider these as the minimum necessary citations

  1. Bannwarth, C.; Ehlert, S.; Grimme, S.
     GFN2-xTB—An Accurate and Broadly Parametrized Self-Consistent Tight-Binding Quantum Chemical Method with Multipole Electrostatics and Density-Dependent Dispersion Contributions
     J. Chem. Theory Comput. 2019 15(3), 1652-1671
     doi.org/10.1021/acs.jctc.8b01176
  2. Neese, F.
     Software update: the ORCA program system, version 6.0
     WIRES Comput. Molec. Sci. 2025 15(1), e70019
     doi.org/10.1002/wcms.70019

List of papers to cite with high priority. The work reported in these papers was absolutely
necessary for this run to complete.
Our perspective: the developers of density functionals and basis sets usually get cited in chemistry papers
Good! But without the algorithms to do something with them, the functionals or basis sets would not do anything.
Hence, in our opinion, the algorithm design and method developments papers are equally worthy of getting cited

  1. Bannwarth, C.; Caldeweyher, E.; Ehlert, S.; Hansen, A.; Pracht, P.; Seibert, J.; Spicher, S.; Grimme, S.
     Extended tight-binding quantum chemistry methods
     WIRES Comput. Molec. Sci. 2020 11(2), e1493
     doi.org/10.1002/wcms.1493

List of suggested additional citations. These are papers that are important in the 'surrounding' of 
of this run, or papers that preceded the highly important papers. If you like your results we are grateful for a citation.

  1. Neese, F.
     The ORCA program system
     WIRES Comput. Molec. Sci. 2012 2(1), 73-78
     doi.org/10.1002/wcms.81
  2. Neese, F.
     Software update: the ORCA program system, version 4.0
     WIRES Comput. Molec. Sci. 2018 8(1), 1-6
     doi.org/10.1002/wcms.1327
  3. Neese, F.; Wennmohs, F.; Becker, U.; Riplinger, C.
     The ORCA quantum chemistry program package
     J. Chem. Phys. 2020 152(22), 224108
     doi.org/10.1063/5.0004608
  4. Neese, F.
     Software update: The ORCA program system—Version 5.0
     WIRES Comput. Molec. Sci. 2022 12(1), e1606
     doi.org/10.1002/wcms.1606

List of optional additional citations

  1. Neese, F.
     Approximate second-order SCF convergence for spin unrestricted wavefunctions
     Chem. Phys. Lett. 2000 325(1-3), 93-98
     doi.org/10.1016/s0009-2614(00)00662-x

Timings for individual modules:

Sum of individual times          ...        3.639 sec (=   0.061 min)
Geometry relaxation              ...        0.433 sec (=   0.007 min)  11.9 %
XTB module                       ...        3.207 sec (=   0.053 min)  88.1 %
                             ****ORCA TERMINATED NORMALLY****
TOTAL RUN TIME: 0 days 0 hours 0 minutes 4 seconds 194 msec
