
                                 *****************
                                 * O   R   C   A *
                                 *****************

                                            #,                                       
                                            ###                                      
                                            ####                                     
                                            #####                                    
                                            ######                                   
                                           ########,                                 
                                     ,,################,,,,,                         
                               ,,#################################,,                 
                          ,,##########################################,,             
                       ,#########################################, ''#####,          
                    ,#############################################,,   '####,        
                  ,##################################################,,,,####,       
                ,###########''''           ''''###############################       
              ,#####''   ,,,,##########,,,,          '''####'''          '####       
            ,##' ,,,,###########################,,,                        '##       
           ' ,,###''''                  '''############,,,                           
         ,,##''                                '''############,,,,        ,,,,,,###''
      ,#''                                            '''#######################'''  
     '                                                          ''''####''''         
             ,#######,   #######,   ,#######,      ##                                
            ,#'     '#,  ##    ##  ,#'     '#,    #''#        ,####,    ,#,          
            ##       ##  ##   ,#'  ##            #'  '#       #'       ,# #          
            ##       ##  #######   ##           ,######,      #####,      #          
            '#,     ,#'  ##    ##  '#,     ,#' ,#      #,     #,   #      #          
             '#######'   ##     ##  '#######'  #'      '#     '####' #    #          



                #########################################################
                #                        -***-                          #
                #          Department of theory and spectroscopy        #
                #                                                       #
                #                      Frank Neese                      #
                #                                                       #
                #     Directorship, Architecture, Infrastructure        #
                #                    SHARK, DRIVERS                     #
                #        Core code/Algorithms in most modules           #
                #                                                       #
                #        Max Planck Institute fuer Kohlenforschung      #
                #                Kaiser Wilhelm Platz 1                 #
                #                 D-45470 Muelheim/Ruhr                 #
                #                      Germany                          #
                #                                                       #
                #                  All rights reserved                  #
                #                        -***-                          #
                #########################################################


                         Program Version 6.1.1  -  RELEASE   -
                                (GIT: $487d211c$)
                          ($2025-11-21 10:33:24 +0100$)
                                                                         
                                  - NO-DMRG VERSION -                    
                                                                         


 With contributions from (in alphabetic order):
[Max-Planck-Institut fuer Kohlenforschung]                               
  Daniel Aravena         : Magnetic Suceptibility                        
  Michael Atanasov       : Ab Initio Ligand Field Theory (pilot matlab implementation)
  Alexander A. Auer      : GIAO ZORA, VPT2 properties, NMR spectrum      
  Ute Becker             : All parallelization in ORCA, NUMFREQ, NUMCALC 
  Giovanni Bistoni       : ED, misc. LED, open-shell LED, HFLD           
  Dmytro Bykov           : pre 5.0 version of the SCF Hessian            
  Marcos Casanova-Páez   : Triplet and SCS-CIS(D). UHF-(DLPNO)-IP/EA/STEOM-CCSD. UHF-CVS-IP/STEOM-CCSD   
  Vijay G. Chilkuri      : MRCI spin determinant printing, contributions to CSF-ICE 
  Pauline Colinet        : FMM embedding                                 
  Dipayan Datta          : RHF DLPNO-CCSD density                        
  Achintya Kumar Dutta   : EOM-CC, STEOM-CC                              
  Nicolas Foglia         : Exact transition moments, OPA infrastructure, MCD improvements    
  Dmitry Ganyushin       : Spin-Orbit,Spin-Spin,Magnetic field MRCI      
  Miquel Garcia-Rates    : C-PCM and meta-GGA Hessian, CCSD/C-PCM, Gaussian charge scheme 
  Tiago L. C. Gouveia    : GS-ROHF, GS-ROCIS                             
  Yang Guo               : DLPNO-NEVPT2, F12-NEVPT2, CIM, IAO-localization        
  Andreas Hansen         : Spin unrestricted coupled pair/coupled cluster methods 
  Ingolf Harden          : AUTO-CI MPn and infrastructure                
  Benjamin Helmich-Paris : MC-RPA, TRAH-(SCF,CASSCF), AVAS, COSX integrals, SCF dyn. polar., MC-PDFT, srDFT 
  Lee Huntington         : MR-EOM, pCC                                   
  Robert Izsak           : Overlap fitted RIJCOSX, COSX-SCS-MP3, EOM     
  Riya Kayal             : Wick's Theorem for AUTO-CI, AUTO-CI UHF-CCSDT 
  Emily Kempfer          : AUTO-CI RHF CISDT and CCSDT, approximate NEVPT4
  Christian Kollmar      : KDIIS, OOCD, Brueckner-CCSD(T), CCSD density, CASPT2, CASPT2-K, improved NEVPT2 
  Axel Koslowski         : Symmetry handling                             
  Simone Kossmann        : meta-GGA functionals, TD-DFT gradient, OOMP2, (MP2 Hessian; deprecated post 5.0) 
  Lucas Lang             : DCDCAS, Hyperfine gauge corrections, ICE-SOC+SSC
  Marvin Lechner         : AUTO-CI (C++ implementation), FIC-MRCC        
  Spencer Leger          : CASSCF response                               
  Dagmar Lenk            : GEPOL surface, SMD, ORCA-2-JSON               
  Dimitrios Liakos       : Extrapolation schemes; Compound Job, Property file
  Dimitrios Manganas     : Further ROCIS development; embedding schemes. LFT, Crystal Embedding 
  Dimitrios Pantazis     : SARC Basis sets                               
  Anastasios Papadopoulos: AUTO-CI, single reference methods and gradients 
  Taras Petrenko         : pre 6.0 DFT Hessian and TD-DFT gradient,  ECA, NRVS 
  Petra Pikulova         : Analytic Raman intensities                    
  Peter Pinski           : DLPNO-MP2, DLPNO-MP2 Gradient                 
  Shashank Vittal Rao    : ES-AILFT, MagRelax                            
  Christoph Reimann      : Effective Core Potentials                     
  Marius Retegan         : Local ZFS, SOC                                
  Christoph Riplinger    : Optimizer, TS searches, QM/MM, DLPNO-CCSD(T), (RO)-DLPNO pert. Triples 
  Michael Roemelt        : Original ROCIS implementation, recursive CI coupling coefficients
  Masaaki Saitow         : Open-shell DLPNO-CCSD energy and density      
  Barbara Sandhoefer     : DKH picture change effects                    
  Yorick L. A. Schmerwitz: GMF and freeze-and-release deltaSCF, NEB S-IDPP initial path                    
  Kantharuban Sivalingam : CASSCF convergence/infrastructure, NEVPT2, NEVPT3, NEVPT4(SD), FIC-MRCI and CEPA variants
  Bernardo de Souza      : ESD, SOC TD-DFT                               
  Georgi L. Stoychev     : AutoAux, RI-MP2 NMR, DLPNO-MP2 response, X2C  
  Van Anh Tran           : RI-MP2 g-tensors                              
  Willem Van den Heuvel  : Paramagnetic NMR                              
  Zikuan Wang            : NOTCH, Electric field optimization            
  Frank Wennmohs         : Technical directorship and infrastructure     
  Hang Xu                : AUTO-CI-Response properties                   
                                                                         
[FACCTs GmbH]                                                            
  Markus Bursch, Nicolas Foglia, Miquel Garcia-Rates, Ingolf Harden, Hagen Neugebauer, Anastasios Papadopoulos, 
  Christoph Riplinger, Bernardo de Souza, Georgi L. Stoychev                                                    
                                                                 
  APM, various basis sets, CI-OPT, improved COSX, DLPNO-Multilevel,           
  DOCKER, DRACO, updates on ESD, Fragmentator, GOAT, IRC, LR-CPCM, L-BFGS, MBIS, meta-GGA TD-DFT gradient, ML-optimized integration grids, 
  MM, NACMEs, nearIR, NEB, NEB-TS, NL-DFT gradient (VV10), 2- and 3-layer-ONIOM, interface openCOSMO-RS, QMMM,   
  Crystal-QMMM, RESP, rigid body optimization, SF, symmetry and pop. for TD-DFT, various functionals, SOLVATOR                                   
                                                                         
[Other institutions]                                                     
  V. Asgeirsson          : NEB                                           
  Christoph Bannwarth    : sTDA-DFT, sTD-DFT, PBEh-3c, B97-3c, D3        
  Giovanni Bistoni       : ETS/NOCV, ADLD/ADEX, COVALED                  
  Martin Brehm           : Molecular dynamics                            
  Ronald Cardenas        : ETS/NOCV                                      
  Martina Colucci        : COVALED                                       
  Sebastian Ehlert       : rSCAN, r2SCAN, r2SCAN-3c, D4, dhf basis sets  
  Marvin Friede          : D4 for Fr, Ra, Ac-Lr                          
  Lars Goerigk           : TD-DFT with DH, B97 family of functionals     
  Stefan Grimme          : VdW corrections, initial TS optimization, DFT functionals, gCP, sTDA/sTD-DF 
  Waldemar Hujo          : DFT-NL                                        
  H. Jonsson             : NEB                                           
  Holger Kruse           : gCP                                           
  Marcel Mueller         : wB97X-3c, vDZP basis set                      
  Hagen Neugebauer       : wr2SCAN, Native XTB                           
  Gianluca Regni         : ADLD/ADEX                                     
  Tobias Risthaus        : pre 6.0 range-separated hybrid DFT and stability analysis
  Lukas Wittmann         : regularized MP2, r2SCAN double-hybrids, wr2SCAN        
                                                                         
We gratefully acknowledge several colleagues who have allowed us to      
interface, adapt or use parts of their codes:                            
  Ed Valeev, F. Pavosevic, A. Kumar             : LibInt (2-el integral package), F12 methods 
  Garnet Chan, S. Sharma, J. Yang, R. Olivares  : DMRG                   
  Ulf Ekstrom                                   : XCFun DFT Library      
  Mihaly Kallay                                 : mrcc  (arbitrary order and MRCC methods)
  Frank Weinhold                                : gennbo (NPA and NBO analysis)           
  Simon Mueller                                 : openCOSMO-RS                            
  Christopher J. Cramer and Donald G. Truhlar   : smd solvation model                     
  S Lehtola, MJT Oliveira, MAL Marques          : LibXC Library                           
  Liviu Ungur et al                             : ANISO software                          


 Your calculation uses the libint2 library for the computation of 2-el integrals
 For citations please refer to: http://libint.valeyev.net

 Your ORCA version has been built with support for libXC version: 7.0.0
 For citations please refer to: https://libxc.gitlab.io

 This ORCA versions uses:
   CBLAS   interface :  Fast vector & matrix operations
   LAPACKE interface :  Fast linear algebra routines
   SCALAPACK package :  Parallel linear algebra routines
   Shared memory     :  Shared parallel matrices
   BLAS/LAPACK       :  OpenBLAS 0.3.29  USE64BITINT DYNAMIC_ARCH NO_AFFINITY Zen SINGLE_THREADED
        Core in use  :  Zen
   Copyright (c) 2011-2014, The OpenBLAS Project


  ***********************************
  * Starting time: Fri Apr 17 12:14:59 2026
  * Host name:     vmi3233575
  * Process ID:    341386
  * Working dir.:  /root/orca_b12_vps_pack/jobs/01_xtb/mult_3
  ***********************************

NOTE: MaxCore=500 MB was set to SCF,MP2,MDCI,CIPSI,MRCI,RASCI and CIS
      => If you want to overwrite this, your respective input block should be placed after the MaxCore statement


***************************************
The coordinates will be read from file: ../../../starts/zigzag_chain12_d2.10.xyz
***************************************


Your calculation utilizes the semiempirical GFN2-xTB method
Please cite in your paper:
Bannwarth, C.; Ehlert S.; Grimme, S. J. Chem. Theory Comput. 2019, 15, 1652.
   

================================================================================

================================================================================
                                        WARNINGS
                       Please study these warnings very carefully!
================================================================================


WARNING: Geometry Optimization
  ===> : Switching off AutoStart
         For restart on a previous wavefunction, please use MOREAD

WARNING: Found dipole moment calculation with XTB calculation
  ===> : Switching off dipole moment calculation

Environment variable XTBEXE for xtb has been set!

================================================================================
                                       INPUT FILE
================================================================================
NAME = zigzag_chain12_d2.10_m3.inp
|  1> ! GFN2-xTB TightSCF TightOpt
|  2> 
|  3> %pal
|  4>   nprocs 1
|  5> end
|  6> 
|  7> %maxcore 500
|  8> 
|  9> * xyzfile 0 3 ../../../starts/zigzag_chain12_d2.10.xyz
| 10> 
| 11>                          ****END OF INPUT****
================================================================================

                       *****************************
                       * Geometry Optimization Run *
                       *****************************

Geometry optimization settings:
Update method            Update   .... BFGS
Choice of coordinates    CoordSys .... (2022) Redundant Internals
Initial Hessian          InHess   .... Almloef's Model
Max. no of cycles        MaxIter  .... 50

Convergence Tolerances:
Energy Change            TolE     ....  1.0000e-06 Eh
Max. Gradient            TolMAXG  ....  1.0000e-04 Eh/bohr
RMS Gradient             TolRMSG  ....  3.0000e-05 Eh/bohr
Max. Displacement        TolMAXD  ....  1.0000e-03 bohr
RMS Displacement         TolRMSD  ....  6.0000e-04 bohr
Strict Convergence                .... False

------------------------------------------------------------------------------
                        ORCA OPTIMIZATION COORDINATE SETUP
------------------------------------------------------------------------------

The optimization will be done in redundant internal coordinates (2022)
Making redundant internal coordinates   ...  (2022 redundants) done
Evaluating the initial hessian          ...  (Almloef) done
Evaluating the coordinates              ...  done
Calculating the B-matrix                .... done
Calculating the G-matrix                .... done
The number of degrees of freedom        ....   31

    -----------------------------------------------------------------
                    Redundant Internal Coordinates


    -----------------------------------------------------------------
         Definition                    Initial Value    Approx d2E/dq
    -----------------------------------------------------------------
      1. B(B   1,B   0)                  2.4277         0.018529   
      2. B(B   2,B   1)                  2.4277         0.018529   
      3. B(B   3,B   2)                  2.4277         0.018529   
      4. B(B   4,B   3)                  2.4277         0.018529   
      5. B(B   5,B   4)                  2.4277         0.018529   
      6. B(B   6,B   5)                  2.4277         0.018529   
      7. B(B   7,B   6)                  2.4277         0.018529   
      8. B(B   8,B   7)                  2.4277         0.018529   
      9. B(B   9,B   8)                  2.4277         0.018529   
     10. B(B  10,B   9)                  2.4277         0.018529   
     11. B(B  11,B   5)                 11.5920         0.010000   
     12. B(B  11,B  10)                  2.4277         0.018529   
     13. A(B   0,B   1,B   2)          105.4672         0.162495   
     14. A(B   1,B   2,B   3)          105.4672         0.162495   
     15. A(B   2,B   3,B   4)          105.4672         0.162495   
     16. A(B   3,B   4,B   5)          105.4672         0.162495   
     17. A(B   4,B   5,B   6)          105.4672         0.162495   
     18. A(B   5,B   6,B   7)          105.4672         0.162495   
     19. A(B   6,B   7,B   8)          105.4672         0.162495   
     20. A(B   7,B   8,B   9)          105.4672         0.162495   
     21. A(B   8,B   9,B  10)          105.4672         0.162495   
     22. A(B   9,B  10,B  11)          105.4672         0.162495   
     23. D(B   3,B   2,B   1,B   0)    180.0000         0.010000   
     24. D(B   4,B   3,B   2,B   1)    180.0000         0.010000   
     25. D(B   5,B   4,B   3,B   2)    180.0000         0.010000   
     26. D(B   6,B   5,B   4,B   3)    180.0000         0.010000   
     27. D(B   7,B   6,B   5,B   4)    180.0000         0.010000   
     28. D(B   8,B   7,B   6,B   5)    180.0000         0.010000   
     29. D(B   9,B   8,B   7,B   6)    180.0000         0.010000   
     30. D(B  10,B   9,B   8,B   7)    180.0000         0.010000   
     31. D(B  11,B  10,B   9,B   8)    180.0000         0.010000   
    -----------------------------------------------------------------

Number of atoms                         .... 12
Number of degrees of freedom            .... 31


         *************************************************************
         *                GEOMETRY OPTIMIZATION CYCLE   1            *
         *************************************************************
---------------------------------
CARTESIAN COORDINATES (ANGSTROEM)
---------------------------------
  B   -10.626000    0.735000    0.000000
  B    -8.694000   -0.735000    0.000000
  B    -6.762000    0.735000    0.000000
  B    -4.830000   -0.735000    0.000000
  B    -2.898000    0.735000    0.000000
  B    -0.966000   -0.735000    0.000000
  B     0.966000    0.735000    0.000000
  B     2.898000   -0.735000    0.000000
  B     4.830000    0.735000    0.000000
  B     6.762000   -0.735000    0.000000
  B     8.694000    0.735000    0.000000
  B    10.626000   -0.735000    0.000000

----------------------------
CARTESIAN COORDINATES (A.U.)
----------------------------
  NO LB    ZA    FRAG    MASS        X           Y           Z
   0 B   5.0000    0    10.810  -20.080230    1.388949    0.000000
   1 B   5.0000    0    10.810  -16.429279   -1.388949    0.000000
   2 B   5.0000    0    10.810  -12.778328    1.388949    0.000000
   3 B   5.0000    0    10.810   -9.127377   -1.388949    0.000000
   4 B   5.0000    0    10.810   -5.476426    1.388949    0.000000
   5 B   5.0000    0    10.810   -1.825475   -1.388949    0.000000
   6 B   5.0000    0    10.810    1.825475    1.388949    0.000000
   7 B   5.0000    0    10.810    5.476426   -1.388949    0.000000
   8 B   5.0000    0    10.810    9.127377    1.388949    0.000000
   9 B   5.0000    0    10.810   12.778328   -1.388949    0.000000
  10 B   5.0000    0    10.810   16.429279    1.388949    0.000000
  11 B   5.0000    0    10.810   20.080230   -1.388949    0.000000

      -----------------------------------------------------------      
     |                   =====================                   |     
     |                           x T B                           |     
     |                   =====================                   |     
     |                         S. Grimme                         |     
     |          Mulliken Center for Theoretical Chemistry        |     
     |                    University of Bonn                     |     
      -----------------------------------------------------------      

   * xtb version 6.6.1 (unknown) compiled by 'builduser@buildhost' on 2023-08-07

   xtb is free software: you can redistribute it and/or modify it under
   the terms of the GNU Lesser General Public License as published by
   the Free Software Foundation, either version 3 of the License, or
   (at your option) any later version.
   
   xtb is distributed in the hope that it will be useful,
   but WITHOUT ANY WARRANTY; without even the implied warranty of
   MERCHANTABILITY or FITNESS FOR A PARTICULAR PURPOSE.  See the
   GNU Lesser General Public License for more details.
   
   Cite this work as:
   * C. Bannwarth, E. Caldeweyher, S. Ehlert, A. Hansen, P. Pracht,
     J. Seibert, S. Spicher, S. Grimme, WIREs Comput. Mol. Sci., 2020, 11,
     e01493. DOI: 10.1002/wcms.1493
   
   for GFN2-xTB:
   * C. Bannwarth, S. Ehlert and S. Grimme., J. Chem. Theory Comput., 2019,
     15, 1652-1671. DOI: 10.1021/acs.jctc.8b01176
   for GFN1-xTB:
   * S. Grimme, C. Bannwarth, P. Shushkov, J. Chem. Theory Comput., 2017,
     13, 1989-2009. DOI: 10.1021/acs.jctc.7b00118
   for GFN0-xTB:
   * P. Pracht, E. Caldeweyher, S. Ehlert, S. Grimme, ChemRxiv, 2019, preprint.
     DOI: 10.26434/chemrxiv.8326202.v1
   for GFN-FF:
   * S. Spicher and S. Grimme, Angew. Chem. Int. Ed., 2020, 59, 15665-15673.
     DOI: 10.1002/anie.202004239
   
   for ALPB and GBSA implicit solvation:
   * S. Ehlert, M. Stahn, S. Spicher, S. Grimme, J. Chem. Theory Comput.,
     2021, 17, 4250-4261. DOI: 10.1021/acs.jctc.1c00471
   
   for DFT-D4:
   * E. Caldeweyher, C. Bannwarth and S. Grimme, J. Chem. Phys., 2017,
     147, 034112. DOI: 10.1063/1.4993215
   * E. Caldeweyher, S. Ehlert, A. Hansen, H. Neugebauer, S. Spicher,
     C. Bannwarth and S. Grimme, J. Chem. Phys., 2019, 150, 154122.
     DOI: 10.1063/1.5090222
   * E. Caldeweyher, J.-M. Mewes, S. Ehlert and S. Grimme, Phys. Chem. Chem. Phys.
     2020, 22, 8499-8512. DOI: 10.1039/D0CP00502A
   
   for sTDA-xTB:
   * S. Grimme and C. Bannwarth, J. Chem. Phys., 2016, 145, 054103.
     DOI: 10.1063/1.4959605
   
   in the mass-spec context:
   * V. Asgeirsson, C. Bauer and S. Grimme, Chem. Sci., 2017, 8, 4879.
     DOI: 10.1039/c7sc00601b
   * J. Koopman and S. Grimme, ACS Omega 2019, 4, 12, 15120-15133.
     DOI: 10.1021/acsomega.9b02011
   
   for metadynamics refer to:
   * S. Grimme, J. Chem. Theory Comput., 2019, 155, 2847-2862
     DOI: 10.1021/acs.jctc.9b00143
   
   for SPH calculations refer to:
   * S. Spicher and S. Grimme, J. Chem. Theory Comput., 2021, 17, 1701-1714
     DOI: 10.1021/acs.jctc.0c01306
   
   with help from (in alphabetical order)
   P. Atkinson, C. Bannwarth, F. Bohle, G. Brandenburg, E. Caldeweyher
   M. Checinski, S. Dohm, S. Ehlert, S. Ehrlich, I. Gerasimov, C. Hölzer
   A. Katbashev, J. Koopman, C. Lavigne, S. Lehtola, F. März, M. Müller,
   F. Musil, H. Neugebauer, J. Pisarek, C. Plett, P. Pracht, F. Pultar,
   J. Seibert, P. Shushkov, S. Spicher, M. Stahn, M. Steiner, T. Strunk,
   J. Stückrath, T. Rose, and J. Unsleber
   
 * started run on 2026/04/17 at 12:14:59.956     

           -------------------------------------------------
          |                Calculation Setup                |
           -------------------------------------------------

          program call               : /usr/bin/xtb zigzag_chain12_d2.10_m3_XTB.xyz --grad -c 0 -u 2 -P 1 --namespace zigzag_chain12_d2.10_m3 --input zigzag_chain12_d2.10_m3_XTB.input.tmp --acc 0.200000
          calculation namespace      : zigzag_chain12_d2.10_m3
          coordinate file            : zigzag_chain12_d2.10_m3_XTB.xyz
          omp threads                :                     1

   ID    Z sym.   atoms
    1    5 B      1-12

molecular fragmentation (1/2 indicates fragments):
122222222222
# atoms in fragment 1/2:     1    11
 fragment masses (1/2) :       10.81      118.92
CMA distance (Bohr)    :  21.958
constraining FC (au)   :  0.0500

           -------------------------------------------------
          |                 G F N 2 - x T B                 |
           -------------------------------------------------

        Reference                      10.1021/acs.jctc.8b01176
      * Hamiltonian:
        H0-scaling (s, p, d)           1.850000    2.230000    2.230000
        zeta-weighting                 0.500000
      * Dispersion:
        s8                             2.700000
        a1                             0.520000
        a2                             5.000000
        s9                             5.000000
      * Repulsion:
        kExp                           1.500000    1.000000
        rExp                           1.000000
      * Coulomb:
        alpha                          2.000000
        third order                    shell-resolved
        anisotropic                    true
        a3                             3.000000
        a5                             4.000000
        cn-shift                       1.200000
        cn-exp                         4.000000
        max-rad                        5.000000


          ...................................................
          :                      SETUP                      :
          :.................................................:
          :  # basis functions                  48          :
          :  # atomic orbitals                  48          :
          :  # shells                           24          :
          :  # electrons                        36          :
          :  max. iterations                   250          :
          :  Hamiltonian                  GFN2-xTB          :
          :  restarted?                      false          :
          :  GBSA solvation                  false          :
          :  PC potential                    false          :
          :  electronic temp.          300.0000000     K    :
          :  accuracy                    0.2000000          :
          :  -> integral cutoff          0.3198970E+02      :
          :  -> integral neglect         0.2000000E-08      :
          :  -> SCF convergence          0.2000000E-06 Eh   :
          :  -> wf. convergence          0.2000000E-04 e    :
          :  Broyden damping             0.4000000          :
          ...................................................

 iter      E             dE          RMSdq      gap      omega  full diag
   1    -12.3458988 -0.123459E+02  0.242E+01    0.05       0.0  T
   2      5.1187547  0.174647E+02  0.235E+01    0.00       1.0  T
   3     26.7519908  0.216332E+02  0.302E+01    0.02       1.0  T
   4     19.5633028 -0.718869E+01  0.318E+01    0.00       1.0  T
   5      7.2038469 -0.123595E+02  0.213E+01    0.19       1.0  T
   6     -3.5740043 -0.107779E+02  0.189E+01    0.05       1.0  T
   7     -4.1816789 -0.607675E+00  0.160E+01    0.11       1.0  T
   8     -5.7738704 -0.159219E+01  0.172E+01    0.01       1.0  T
   9     -8.7487764 -0.297491E+01  0.126E+01    0.13       1.0  T
  10    -10.0239697 -0.127519E+01  0.102E+01    0.05       1.0  T
  11     -8.4373354  0.158663E+01  0.118E+01    0.06       1.0  T
  12     -9.3454513 -0.908116E+00  0.985E+00    0.13       1.0  T
  13     -8.7875596  0.557892E+00  0.108E+01    0.16       1.0  T
  14     -8.9622745 -0.174715E+00  0.102E+01    0.20       1.0  T
  15    -12.2611929 -0.329892E+01  0.702E+00    0.07       1.0  T
  16    -11.1547250  0.110647E+01  0.722E+00    0.01       1.0  T
  17    -11.0654529  0.892721E-01  0.718E+00    0.01       1.0  T
  18    -11.0713318 -0.587896E-02  0.717E+00    0.01       1.0  T
  19    -11.1421954 -0.708636E-01  0.709E+00    0.01       1.0  T
  20    -11.3067953 -0.164600E+00  0.691E+00    0.03       1.0  T
  21    -11.3263016 -0.195063E-01  0.687E+00    0.03       1.0  T
  22    -11.2366127  0.896890E-01  0.684E+00    0.02       1.0  T
  23    -11.2391045 -0.249187E-02  0.679E+00    0.02       1.0  T
  24    -11.4701123 -0.231008E+00  0.646E+00    0.05       1.0  T
  25    -12.0299997 -0.559887E+00  0.538E+00    0.09       1.0  T
  26    -12.1878042 -0.157804E+00  0.490E+00    0.09       1.0  T
  27    -12.1502589  0.375453E-01  0.494E+00    0.09       1.0  T
  28    -12.1185954  0.316635E-01  0.498E+00    0.09       1.0  T
  29    -12.1132561  0.533929E-02  0.499E+00    0.09       1.0  T
  30    -12.1137338 -0.477699E-03  0.497E+00    0.09       1.0  T
  31    -12.0659568  0.477770E-01  0.472E+00    0.09       1.0  T
  32    -12.1490050 -0.830482E-01  0.394E+00    0.09       1.0  T
  33    -12.2328268 -0.838218E-01  0.362E+00    0.09       1.0  T
  34    -12.2891676 -0.563408E-01  0.342E+00    0.08       1.0  T
  35    -12.2911119 -0.194428E-02  0.343E+00    0.08       1.0  T
  36    -12.3181162 -0.270043E-01  0.336E+00    0.07       1.0  T
  37    -12.3238898 -0.577361E-02  0.328E+00    0.07       1.0  T
  38    -12.3202997  0.359011E-02  0.316E+00    0.07       1.0  T
  39    -12.3197157  0.584024E-03  0.316E+00    0.07       1.0  T
  40    -12.3272739 -0.755820E-02  0.310E+00    0.07       1.0  T
  41    -12.3597278 -0.324540E-01  0.256E+00    0.05       1.0  T
  42    -12.3529718  0.675603E-02  0.237E+00    0.05       1.0  T
  43    -12.3920074 -0.390356E-01  0.208E+00    0.03       1.0  T
  44    -12.3924907 -0.483345E-03  0.204E+00    0.03       1.0  T
  45    -12.4048483 -0.123576E-01  0.199E+00    0.02       1.0  T
  46    -12.4033806  0.146773E-02  0.193E+00    0.02       1.0  T
  47    -12.4031921  0.188495E-03  0.174E+00    0.02       1.0  T
  48    -12.4168548 -0.136627E-01  0.162E+00    0.01       1.0  T
  49    -12.4187963 -0.194145E-02  0.151E+00    0.01       1.0  T
  50    -12.4185167  0.279558E-03  0.137E+00    0.01       1.0  T
  51    -12.4187412 -0.224486E-03  0.127E+00    0.02       1.0  T
  52    -12.4193442 -0.603006E-03  0.122E+00    0.02       1.0  T
  53    -12.4215013 -0.215707E-02  0.109E+00    0.02       1.0  T
  54    -12.4242621 -0.276078E-02  0.888E-01    0.02       1.0  T
  55    -12.4271505 -0.288846E-02  0.755E-01    0.02       1.0  T
  56    -12.4285718 -0.142128E-02  0.605E-01    0.02       1.0  T
  57    -12.4305386 -0.196679E-02  0.439E-01    0.02       1.0  T
  58    -12.4320333 -0.149467E-02  0.231E-01    0.02       1.0  T
  59    -12.4323162 -0.282945E-03  0.209E-01    0.01       1.0  T
  60    -12.4323206 -0.441444E-05  0.204E-01    0.01       1.0  T
  61    -12.4324044 -0.838254E-04  0.119E-01    0.01       1.0  T
  62    -12.4324256 -0.211504E-04  0.104E-01    0.01       1.0  T
  63    -12.4324545 -0.289145E-04  0.966E-02    0.02       1.0  T
  64    -12.4324916 -0.370465E-04  0.753E-02    0.02       1.0  T
  65    -12.4325070 -0.154021E-04  0.639E-02    0.02       1.0  T
  66    -12.4325127 -0.572535E-05  0.568E-02    0.02       1.0  T
  67    -12.4325261 -0.134330E-04  0.404E-02    0.02       1.0  T
  68    -12.4325293 -0.320842E-05  0.338E-02    0.02       1.0  T
  69    -12.4325340 -0.468965E-05  0.219E-02    0.02       1.3  T
  70    -12.4325345 -0.485043E-06  0.180E-02    0.02       1.6  T
  71    -12.4325341  0.396313E-06  0.170E-02    0.02       1.7  T
  72    -12.4325346 -0.501265E-06  0.149E-02    0.02       1.9  T
  73    -12.4325349 -0.336126E-06  0.129E-02    0.02       2.2  T
  74    -12.4325356 -0.613925E-06  0.861E-03    0.02       3.4  T
  75    -12.4325356 -0.775897E-07  0.611E-03    0.02       4.7  T
  76    -12.4325358 -0.175381E-06  0.432E-03    0.02       6.7  T
  77    -12.4325358 -0.144761E-07  0.334E-03    0.02       8.7  T
  78    -12.4325359 -0.510452E-07  0.321E-03    0.02       9.0  T
  79    -12.4325359 -0.129149E-07  0.328E-03    0.02       8.8  T
  80    -12.4325359 -0.242076E-07  0.218E-03    0.02      13.3  T
  81    -12.4325359 -0.136341E-07  0.184E-03    0.02      15.7  T
  82    -12.4325359 -0.572699E-08  0.109E-03    0.02      26.6  T
  83    -12.4325359 -0.595705E-08  0.833E-04    0.02      34.6  T
  84    -12.4325359 -0.215925E-08  0.469E-04    0.02      61.5  T
  85    -12.4325359 -0.158613E-09  0.290E-04    0.02      99.7  T
  86    -12.4325359 -0.298570E-10  0.113E-04    0.02     255.8  T
  87    -12.4325359 -0.933760E-10  0.105E-04    0.02     274.6  T

   *** convergence criteria satisfied after 87 iterations ***

         #    Occupation            Energy/Eh            Energy/eV
      -------------------------------------------------------------
         1        2.0000           -0.3569068              -9.7119
       ...           ...                  ...                  ...
        13        2.0000           -0.2731510              -7.4328
        14        2.0000           -0.2715724              -7.3899
        15        2.0000           -0.2707815              -7.3683
        16        1.9997           -0.2668090              -7.2602
        17        1.9490           -0.2617689              -7.1231
        18        1.0484           -0.2562134              -6.9719
        19        0.5013           -0.2505654              -6.8182 (HOMO)
        20        0.3484           -0.2499661              -6.8019 (LUMO)
        21        0.1484           -0.2489006              -6.7729
        22        0.0043           -0.2453891              -6.6774
        23        0.0005           -0.2433064              -6.6207
        24        0.0000           -0.2401780              -6.5356
       ...           ...                  ...                  ...
        48                         -0.1018866              -2.7725
      -------------------------------------------------------------
                  HL-Gap            0.0005993 Eh            0.0163 eV
             Fermi-level           -0.2547760 Eh           -6.9328 eV

 transition dipole moment (au) for excitation:          18          19
     X       Y       Z   
   0.0000   0.0000  -0.0000  total (au/Debye):    0.000   0.000
 dE (eV)             :    0.154
 oscillator strength :  0.26229E-14

 SCC (total)                   0 d,  0 h,  0 min,  0.101 sec
 SCC setup                      ...        0 min,  0.000 sec (  0.149%)
 Dispersion                     ...        0 min,  0.000 sec (  0.099%)
 classical contributions        ...        0 min,  0.000 sec (  0.036%)
 integral evaluation            ...        0 min,  0.002 sec (  1.587%)
 iterations                     ...        0 min,  0.092 sec ( 91.495%)
 molecular gradient             ...        0 min,  0.004 sec (  4.089%)
 printout                       ...        0 min,  0.003 sec (  2.519%)

         :::::::::::::::::::::::::::::::::::::::::::::::::::::
         ::                     SUMMARY                     ::
         :::::::::::::::::::::::::::::::::::::::::::::::::::::
         :: total energy             -12.432645053327 Eh    ::
         :: gradient norm              0.292899124989 Eh/a0 ::
         :: HOMO-LUMO gap              0.016309020986 eV    ::
         ::.................................................::
         :: SCC energy               -12.432535936905 Eh    ::
         :: -> isotropic ES            0.015186961890 Eh    ::
         :: -> anisotropic ES          0.000246895314 Eh    ::
         :: -> anisotropic XC         -0.048561381559 Eh    ::
         :: -> dispersion             -0.016626858384 Eh    ::
         :: repulsion energy           0.000170120820 Eh    ::
         :: add. restraining           0.000000000000 Eh    ::
         :: total charge              -0.000000000007 e     ::
         :::::::::::::::::::::::::::::::::::::::::::::::::::::


Property printout bound to 'properties.out'

           -------------------------------------------------
          | TOTAL ENERGY              -12.432645053327 Eh   |
          | GRADIENT NORM               0.292899124989 Eh/α |
          | HOMO-LUMO GAP               0.016309020986 eV   |
           -------------------------------------------------

------------------------------------------------------------------------
 * finished run on 2026/04/17 at 12:15:00.069     
------------------------------------------------------------------------
 total:
 * wall-time:     0 d,  0 h,  0 min,  0.113 sec
 *  cpu-time:     0 d,  0 h,  0 min,  0.113 sec
 * ratio c/w:     1.000 speedup
 SCF:
 * wall-time:     0 d,  0 h,  0 min,  0.101 sec
 *  cpu-time:     0 d,  0 h,  0 min,  0.101 sec
 * ratio c/w:     1.000 speedup


-------------------------   --------------------
FINAL SINGLE POINT ENERGY       -12.432645053330
-------------------------   --------------------


-------------
DIPOLE MOMENT
-------------
                                X             Y             Z
Total Dipole Moment    :     -0.00000       0.00000      -0.00000
                        -----------------------------------------
Magnitude (a.u.)       :      0.00000
Magnitude (Debye)      :      0.00000


------------------
CARTESIAN GRADIENT
------------------

   1   B   :   -0.047415373    0.039762715    0.000000000
   2   B   :    0.000826807   -0.084433538    0.000000000
   3   B   :    0.003191931    0.089243813    0.000000000
   4   B   :    0.000412591   -0.089181296   -0.000000000
   5   B   :   -0.000176162    0.089365040   -0.000000000
   6   B   :    0.000145491   -0.089563881    0.000000000
   7   B   :   -0.000145478    0.089563877    0.000000000
   8   B   :    0.000176178   -0.089365017   -0.000000000
   9   B   :   -0.000412574    0.089181261   -0.000000000
  10   B   :   -0.003191939   -0.089243764    0.000000000
  11   B   :   -0.000826793    0.084433465    0.000000000
  12   B   :    0.047415321   -0.039762676   -0.000000000

Difference to translation invariance:
           :    0.0000000000    0.0000000000   -0.0000000000

Difference to rotation invariance:
           :   -0.0000000000    0.0000000000    0.0000603235

Norm of the Cartesian gradient     ...    0.2928991250
RMS gradient                       ...    0.0488165208
MAX gradient                       ...    0.0895638808
------------------------------------------------------------------------------
                         ORCA GEOMETRY RELAXATION STEP
------------------------------------------------------------------------------

Reading the OPT-File                    .... done
Getting information on internals        .... done
Copying old internal coords+grads       .... done
Making the new internal coordinates     .... (2022 redundants) done
Validating the new internal coordinates .... (2022 redundants) done
Calculating the B-matrix                .... done
Calculating the G,G- and P matrices     .... done
Transforming gradient to internals      .... done
Projecting the internal gradient        .... done
Number of atoms                         ....  12
Number of internal coordinates          ....  31
Current Energy                          ....   -12.432645053 Eh
Current gradient norm                   ....     0.292899125 Eh/bohr
Maximum allowed component of the step   ....  0.300
Current trust radius                    ....  0.300
Evaluating the initial hessian          ....  (Almloef) done
Projecting the Hessian                  .... done
Forming the augmented Hessian           .... done
Diagonalizing the augmented Hessian     .... done
Last element of RFO vector              ....  0.732805502
Lowest eigenvalues of augmented Hessian:
 -0.197192643  0.010000000  0.010000000  0.010000000  0.010000000
Length of the computed step             ....  0.928538558
Warning: the length of the step is outside the trust region - taking restricted step instead
The input lambda is                     ....     0.009000
   iter:   5  x=   -0.025144  g= 2488.892720 f(x)=    37.081867
   iter:  10  x=   -0.325128  g=    5.912562 f(x)=     0.639766
   iter:  15  x=   -0.676272  g=    0.254069 f(x)=     0.000147
The output lambda is                    ....    -0.676273 (18 iterations)
The final length of the internal step   ....  0.300000000
Converting the step to Cartesian space:
 Initial RMS(Int)=    0.0538815906
Transforming coordinates:
 Iter   0:  RMS(Cart)=    0.0986115407 RMS(Int)=    2.5239450135
 Iter   5:  RMS(Cart)=    0.0000000251 RMS(Int)=    0.0000000130
done
Storing new coordinates                 .... done

                                .--------------------.
          ----------------------|Geometry convergence|-------------------------
          Item                value                   Tolerance       Converged
          ---------------------------------------------------------------------
          RMS gradient        0.0383648164            0.0000300000      NO
          MAX gradient        0.0641249852            0.0001000000      NO
          RMS step            0.0538815906            0.0006000000      NO
          MAX step            0.0922924509            0.0010000000      NO
          -------------------------------------------------------------------------
          ........................................................
          Max(Bonds)      0.0488      Max(Angles)    2.80
          Max(Dihed)        0.00      Max(Improp)    0.00
          ---------------------------------------------------------------------

The optimization has not yet converged - more geometry cycles are needed


    ---------------------------------------------------------------------------
                         Redundant Internal Coordinates
                            (Angstroem and degrees)

        Definition                    Value    dE/dq     Step     New-Value
    ----------------------------------------------------------------------------
     1. B(B   1,B   0)                2.4277  0.061812 -0.0471    2.3806   
     2. B(B   2,B   1)                2.4277  0.064125 -0.0488    2.3788   
     3. B(B   3,B   2)                2.4277  0.061527 -0.0469    2.3808   
     4. B(B   4,B   3)                2.4277  0.061218 -0.0466    2.3810   
     5. B(B   5,B   4)                2.4277  0.061450 -0.0468    2.3809   
     6. B(B   6,B   5)                2.4277  0.057491 -0.0426    2.3851   
     7. B(B   7,B   6)                2.4277  0.057579 -0.0427    2.3850   
     8. B(B   8,B   7)                2.4277  0.057347 -0.0425    2.3852   
     9. B(B   9,B   8)                2.4277  0.057656 -0.0427    2.3849   
    10. B(B  10,B   9)                2.4277  0.060254 -0.0447    2.3829   
    11. B(B  11,B   5)               11.5920  0.004865 -0.0053   11.5867   
    12. B(B  11,B  10)                2.4277  0.057941 -0.0429    2.3847   
    13. A(B   0,B   1,B   2)          105.47 -0.013459    0.92    106.39   
    14. A(B   1,B   2,B   3)          105.47 -0.020209    1.38    106.85   
    15. A(B   2,B   3,B   4)          105.47 -0.021979    1.50    106.97   
    16. A(B   3,B   4,B   5)          105.47 -0.021472    1.47    106.93   
    17. A(B   4,B   5,B   6)          105.47 -0.022045    1.51    106.97   
    18. A(B   5,B   6,B   7)          105.47 -0.035559    2.80    108.27   
    19. A(B   6,B   7,B   8)          105.47 -0.021472    1.47    106.93   
    20. A(B   7,B   8,B   9)          105.47 -0.035492    2.79    108.26   
    21. A(B   8,B   9,B  10)          105.47 -0.020209    1.38    106.85   
    22. A(B   9,B  10,B  11)          105.47 -0.026972    2.21    107.68   
    23. D(B   3,B   2,B   1,B   0)    180.00  0.000000    0.00    180.00   
    24. D(B   4,B   3,B   2,B   1)    180.00 -0.000000   -0.00    180.00   
    25. D(B   5,B   4,B   3,B   2)    180.00 -0.000000   -0.00    180.00   
    26. D(B   6,B   5,B   4,B   3)    180.00 -0.000000    0.00    180.00   
    27. D(B   7,B   6,B   5,B   4)    180.00  0.000000    0.00    180.00   
    28. D(B   8,B   7,B   6,B   5)    180.00 -0.000000   -0.00    180.00   
    29. D(B   9,B   8,B   7,B   6)    180.00 -0.000000   -0.00    180.00   
    30. D(B  10,B   9,B   8,B   7)    180.00 -0.000000    0.00    180.00   
    31. D(B  11,B  10,B   9,B   8)    180.00 -0.000000    0.00    180.00   
    ----------------------------------------------------------------------------

Geometry step timings:
Preparation and reading OPT file:      0.000 s ( 2.438 %)
Internal coordinates            :      0.000 s ( 1.683 %)
B/P matrices and projection     :      0.000 s (28.265 %)
Hessian update/contruction      :      0.000 s (16.193 %)
Making the step                 :      0.000 s (22.229 %)
Converting the step to Cartesian:      0.000 s ( 3.308 %)
Storing new data                :      0.000 s ( 3.018 %)
Checking convergence            :      0.000 s ( 3.076 %)
Final printing                  :      0.000 s (19.791 %)
Total time                      :      0.002 s

Time for energy+gradient        :      0.124 s
Time for complete geometry iter :      0.127 s

         *************************************************************
         *                GEOMETRY OPTIMIZATION CYCLE   2            *
         *************************************************************
---------------------------------
CARTESIAN COORDINATES (ANGSTROEM)
---------------------------------
  B   -10.517343    0.809122   -0.000000
  B    -8.639326   -0.653826    0.000000
  B    -6.707414    0.734157    0.000000
  B    -4.817512   -0.713762   -0.000000
  B    -2.880875    0.671430   -0.000000
  B    -0.991801   -0.777665   -0.000000
  B     0.949257    0.608685    0.000000
  B     2.876416   -0.796808    0.000000
  B     4.782432    0.637522   -0.000000
  B     6.743843   -0.719661    0.000000
  B     8.609697    0.762982    0.000000
  B    10.592625   -0.562175   -0.000000

----------------------------
CARTESIAN COORDINATES (A.U.)
----------------------------
  NO LB    ZA    FRAG    MASS        X           Y           Z
   0 B   5.0000    0    10.810  -19.874898    1.529020   -0.000000
   1 B   5.0000    0    10.810  -16.325960   -1.235551    0.000000
   2 B   5.0000    0    10.810  -12.675175    1.387355    0.000000
   3 B   5.0000    0    10.810   -9.103778   -1.348815   -0.000000
   4 B   5.0000    0    10.810   -5.444065    1.268819   -0.000000
   5 B   5.0000    0    10.810   -1.874233   -1.469574   -0.000000
   6 B   5.0000    0    10.810    1.793835    1.150248    0.000000
   7 B   5.0000    0    10.810    5.435639   -1.505750    0.000000
   8 B   5.0000    0    10.810    9.037487    1.204741   -0.000000
   9 B   5.0000    0    10.810   12.744016   -1.359963    0.000000
  10 B   5.0000    0    10.810   16.269970    1.441827    0.000000
  11 B   5.0000    0    10.810   20.017160   -1.062357   -0.000000

      -----------------------------------------------------------      
     |                   =====================                   |     
     |                           x T B                           |     
     |                   =====================                   |     
     |                         S. Grimme                         |     
     |          Mulliken Center for Theoretical Chemistry        |     
     |                    University of Bonn                     |     
      -----------------------------------------------------------      

   * xtb version 6.6.1 (unknown) compiled by 'builduser@buildhost' on 2023-08-07

   xtb is free software: you can redistribute it and/or modify it under
   the terms of the GNU Lesser General Public License as published by
   the Free Software Foundation, either version 3 of the License, or
   (at your option) any later version.
   
   xtb is distributed in the hope that it will be useful,
   but WITHOUT ANY WARRANTY; without even the implied warranty of
   MERCHANTABILITY or FITNESS FOR A PARTICULAR PURPOSE.  See the
   GNU Lesser General Public License for more details.
   
   Cite this work as:
   * C. Bannwarth, E. Caldeweyher, S. Ehlert, A. Hansen, P. Pracht,
     J. Seibert, S. Spicher, S. Grimme, WIREs Comput. Mol. Sci., 2020, 11,
     e01493. DOI: 10.1002/wcms.1493
   
   for GFN2-xTB:
   * C. Bannwarth, S. Ehlert and S. Grimme., J. Chem. Theory Comput., 2019,
     15, 1652-1671. DOI: 10.1021/acs.jctc.8b01176
   for GFN1-xTB:
   * S. Grimme, C. Bannwarth, P. Shushkov, J. Chem. Theory Comput., 2017,
     13, 1989-2009. DOI: 10.1021/acs.jctc.7b00118
   for GFN0-xTB:
   * P. Pracht, E. Caldeweyher, S. Ehlert, S. Grimme, ChemRxiv, 2019, preprint.
     DOI: 10.26434/chemrxiv.8326202.v1
   for GFN-FF:
   * S. Spicher and S. Grimme, Angew. Chem. Int. Ed., 2020, 59, 15665-15673.
     DOI: 10.1002/anie.202004239
   
   for ALPB and GBSA implicit solvation:
   * S. Ehlert, M. Stahn, S. Spicher, S. Grimme, J. Chem. Theory Comput.,
     2021, 17, 4250-4261. DOI: 10.1021/acs.jctc.1c00471
   
   for DFT-D4:
   * E. Caldeweyher, C. Bannwarth and S. Grimme, J. Chem. Phys., 2017,
     147, 034112. DOI: 10.1063/1.4993215
   * E. Caldeweyher, S. Ehlert, A. Hansen, H. Neugebauer, S. Spicher,
     C. Bannwarth and S. Grimme, J. Chem. Phys., 2019, 150, 154122.
     DOI: 10.1063/1.5090222
   * E. Caldeweyher, J.-M. Mewes, S. Ehlert and S. Grimme, Phys. Chem. Chem. Phys.
     2020, 22, 8499-8512. DOI: 10.1039/D0CP00502A
   
   for sTDA-xTB:
   * S. Grimme and C. Bannwarth, J. Chem. Phys., 2016, 145, 054103.
     DOI: 10.1063/1.4959605
   
   in the mass-spec context:
   * V. Asgeirsson, C. Bauer and S. Grimme, Chem. Sci., 2017, 8, 4879.
     DOI: 10.1039/c7sc00601b
   * J. Koopman and S. Grimme, ACS Omega 2019, 4, 12, 15120-15133.
     DOI: 10.1021/acsomega.9b02011
   
   for metadynamics refer to:
   * S. Grimme, J. Chem. Theory Comput., 2019, 155, 2847-2862
     DOI: 10.1021/acs.jctc.9b00143
   
   for SPH calculations refer to:
   * S. Spicher and S. Grimme, J. Chem. Theory Comput., 2021, 17, 1701-1714
     DOI: 10.1021/acs.jctc.0c01306
   
   with help from (in alphabetical order)
   P. Atkinson, C. Bannwarth, F. Bohle, G. Brandenburg, E. Caldeweyher
   M. Checinski, S. Dohm, S. Ehlert, S. Ehrlich, I. Gerasimov, C. Hölzer
   A. Katbashev, J. Koopman, C. Lavigne, S. Lehtola, F. März, M. Müller,
   F. Musil, H. Neugebauer, J. Pisarek, C. Plett, P. Pracht, F. Pultar,
   J. Seibert, P. Shushkov, S. Spicher, M. Stahn, M. Steiner, T. Strunk,
   J. Stückrath, T. Rose, and J. Unsleber
   
 * started run on 2026/04/17 at 12:15:00.084     

           -------------------------------------------------
          |                Calculation Setup                |
           -------------------------------------------------

          program call               : /usr/bin/xtb zigzag_chain12_d2.10_m3_XTB.xyz --grad -c 0 -u 2 -P 1 --namespace zigzag_chain12_d2.10_m3 --input zigzag_chain12_d2.10_m3_XTB.input.tmp --acc 0.200000
          calculation namespace      : zigzag_chain12_d2.10_m3
          coordinate file            : zigzag_chain12_d2.10_m3_XTB.xyz
          omp threads                :                     1

   ID    Z sym.   atoms
    1    5 B      1-12

molecular fragmentation (1/2 indicates fragments):
122222222222
# atoms in fragment 1/2:     1    11
 fragment masses (1/2) :       10.81      118.92
CMA distance (Bohr)    :  21.746
constraining FC (au)   :  0.0500

           -------------------------------------------------
          |                 G F N 2 - x T B                 |
           -------------------------------------------------

        Reference                      10.1021/acs.jctc.8b01176
      * Hamiltonian:
        H0-scaling (s, p, d)           1.850000    2.230000    2.230000
        zeta-weighting                 0.500000
      * Dispersion:
        s8                             2.700000
        a1                             0.520000
        a2                             5.000000
        s9                             5.000000
      * Repulsion:
        kExp                           1.500000    1.000000
        rExp                           1.000000
      * Coulomb:
        alpha                          2.000000
        third order                    shell-resolved
        anisotropic                    true
        a3                             3.000000
        a5                             4.000000
        cn-shift                       1.200000
        cn-exp                         4.000000
        max-rad                        5.000000

q/qsh data taken from xtbrestart
CAMM data taken from xtbrestart

          ...................................................
          :                      SETUP                      :
          :.................................................:
          :  # basis functions                  48          :
          :  # atomic orbitals                  48          :
          :  # shells                           24          :
          :  # electrons                        36          :
          :  max. iterations                   250          :
          :  Hamiltonian                  GFN2-xTB          :
          :  restarted?                       true          :
          :  GBSA solvation                  false          :
          :  PC potential                    false          :
          :  electronic temp.          300.0000000     K    :
          :  accuracy                    0.2000000          :
          :  -> integral cutoff          0.3198970E+02      :
          :  -> integral neglect         0.2000000E-08      :
          :  -> SCF convergence          0.2000000E-06 Eh   :
          :  -> wf. convergence          0.2000000E-04 e    :
          :  Broyden damping             0.4000000          :
          ...................................................

 iter      E             dE          RMSdq      gap      omega  full diag
   1    -12.4966786 -0.124967E+02  0.121E+00    0.05       0.0  T
   2    -12.2247741  0.271904E+00  0.330E+00    0.12       1.0  T
   3    -12.1107980  0.113976E+00  0.316E+00    0.15       1.0  T
   4    -11.9384937  0.172304E+00  0.408E+00    0.10       1.0  T
   5    -12.3451939 -0.406700E+00  0.243E+00    0.10       1.0  T
   6    -10.6978501  0.164734E+01  0.690E+00    0.16       1.0  T
   7    -11.9689687 -0.127112E+01  0.358E+00    0.11       1.0  T
   8    -12.1110314 -0.142063E+00  0.364E+00    0.11       1.0  T
   9    -12.3444531 -0.233422E+00  0.208E+00    0.10       1.0  T
  10    -12.4281082 -0.836552E-01  0.149E+00    0.06       1.0  T
  11    -12.4510078 -0.228996E-01  0.124E+00    0.08       1.0  T
  12    -12.4917464 -0.407386E-01  0.528E-01    0.05       1.0  T
  13    -12.4920145 -0.268064E-03  0.525E-01    0.06       1.0  T
  14    -12.4962324 -0.421789E-02  0.350E-01    0.05       1.0  T
  15    -12.4966295 -0.397110E-03  0.304E-01    0.05       1.0  T
  16    -12.4968147 -0.185221E-03  0.296E-01    0.05       1.0  T
  17    -12.4944936  0.232116E-02  0.386E-01    0.06       1.0  T
  18    -12.4964920 -0.199844E-02  0.315E-01    0.05       1.0  T
  19    -12.4971279 -0.635872E-03  0.248E-01    0.05       1.0  T
  20    -12.4972680 -0.140117E-03  0.228E-01    0.05       1.0  T
  21    -12.4973342 -0.661830E-04  0.200E-01    0.05       1.0  T
  22    -12.4974237 -0.895593E-04  0.183E-01    0.05       1.0  T
  23    -12.4974502 -0.264948E-04  0.177E-01    0.05       1.0  T
  24    -12.4977422 -0.291930E-03  0.117E-01    0.05       1.0  T
  25    -12.4978188 -0.766889E-04  0.882E-02    0.05       1.0  T
  26    -12.4978430 -0.241793E-04  0.715E-02    0.05       1.0  T
  27    -12.4978452 -0.217539E-05  0.586E-02    0.05       1.0  T
  28    -12.4978666 -0.214278E-04  0.374E-02    0.05       1.0  T
  29    -12.4978690 -0.233674E-05  0.287E-02    0.05       1.0  T
  30    -12.4978694 -0.464190E-06  0.252E-02    0.05       1.1  T
  31    -12.4978717 -0.228083E-05  0.132E-02    0.05       2.2  T
  32    -12.4978721 -0.384942E-06  0.927E-03    0.05       3.1  T
  33    -12.4978722 -0.100707E-06  0.720E-03    0.05       4.0  T
  34    -12.4978723 -0.726273E-07  0.497E-03    0.05       5.8  T
  35    -12.4978723 -0.520464E-07  0.342E-03    0.05       8.4  T
  36    -12.4978724 -0.371174E-07  0.103E-03    0.05      28.0  T
  37    -12.4978724 -0.289262E-08  0.513E-04    0.05      56.3  T
  38    -12.4978724 -0.171513E-09  0.261E-04    0.05     110.5  T
  39    -12.4978724 -0.750182E-09  0.140E-04    0.05     205.6  T
  40    -12.4978724 -0.108992E-09  0.520E-05    0.05     555.6  T

   *** convergence criteria satisfied after 40 iterations ***

         #    Occupation            Energy/Eh            Energy/eV
      -------------------------------------------------------------
         1        2.0000           -0.3589271              -9.7669
       ...           ...                  ...                  ...
        13        2.0000           -0.2725502              -7.4165
        14        2.0000           -0.2721535              -7.4057
        15        2.0000           -0.2694094              -7.3310
        16        1.9998           -0.2651560              -7.2153
        17        1.9536           -0.2599455              -7.0735
        18        1.0306           -0.2541631              -6.9161
        19        0.7064           -0.2509523              -6.8288 (HOMO)
        20        0.2415           -0.2490371              -6.7766 (LUMO)
        21        0.0623           -0.2475481              -6.7361
        22        0.0056           -0.2452122              -6.6726
        23        0.0000           -0.2405744              -6.5464
        24        0.0000           -0.2395845              -6.5194
       ...           ...                  ...                  ...
        48                         -0.0876470              -2.3850
      -------------------------------------------------------------
                  HL-Gap            0.0019153 Eh            0.0521 eV
             Fermi-level           -0.2535988 Eh           -6.9008 eV

 transition dipole moment (au) for excitation:          18          19
     X       Y       Z   
  -0.0000  -0.0000  -0.0014  total (au/Debye):    0.001   0.004
 dE (eV)             :    0.087
 oscillator strength :  0.62760E-08

 SCC (total)                   0 d,  0 h,  0 min,  0.044 sec
 SCC setup                      ...        0 min,  0.000 sec (  0.357%)
 Dispersion                     ...        0 min,  0.000 sec (  0.203%)
 classical contributions        ...        0 min,  0.000 sec (  0.071%)
 integral evaluation            ...        0 min,  0.002 sec (  3.974%)
 iterations                     ...        0 min,  0.036 sec ( 81.665%)
 molecular gradient             ...        0 min,  0.004 sec (  8.459%)
 printout                       ...        0 min,  0.002 sec (  5.225%)

         :::::::::::::::::::::::::::::::::::::::::::::::::::::
         ::                     SUMMARY                     ::
         :::::::::::::::::::::::::::::::::::::::::::::::::::::
         :: total energy             -12.497915360249 Eh    ::
         :: gradient norm              0.300651659133 Eh/a0 ::
         :: HOMO-LUMO gap              0.052117563335 eV    ::
         ::.................................................::
         :: SCC energy               -12.497872364882 Eh    ::
         :: -> isotropic ES            0.018201351375 Eh    ::
         :: -> anisotropic ES          0.000257027069 Eh    ::
         :: -> anisotropic XC         -0.049405803767 Eh    ::
         :: -> dispersion             -0.016785019302 Eh    ::
         :: repulsion energy           0.000251473936 Eh    ::
         :: add. restraining           0.000000000000 Eh    ::
         :: total charge              -0.000000000000 e     ::
         :::::::::::::::::::::::::::::::::::::::::::::::::::::


Property printout bound to 'properties.out'

           -------------------------------------------------
          | TOTAL ENERGY              -12.497915360249 Eh   |
          | GRADIENT NORM               0.300651659133 Eh/α |
          | HOMO-LUMO GAP               0.052117563335 eV   |
           -------------------------------------------------

------------------------------------------------------------------------
 * finished run on 2026/04/17 at 12:15:00.140     
------------------------------------------------------------------------
 total:
 * wall-time:     0 d,  0 h,  0 min,  0.056 sec
 *  cpu-time:     0 d,  0 h,  0 min,  0.056 sec
 * ratio c/w:     1.000 speedup
 SCF:
 * wall-time:     0 d,  0 h,  0 min,  0.045 sec
 *  cpu-time:     0 d,  0 h,  0 min,  0.045 sec
 * ratio c/w:     1.000 speedup


-------------------------   --------------------
FINAL SINGLE POINT ENERGY       -12.497915360250
-------------------------   --------------------


-------------
DIPOLE MOMENT
-------------
                                X             Y             Z
Total Dipole Moment    :     -0.03600      -0.00800      -0.00000
                        -----------------------------------------
Magnitude (a.u.)       :      0.03688
Magnitude (Debye)      :      0.09374


------------------
CARTESIAN GRADIENT
------------------

   1   B   :   -0.048224699    0.041661362    0.000000000
   2   B   :   -0.001927663   -0.087191535   -0.000000000
   3   B   :    0.005025287    0.092146511    0.000000000
   4   B   :   -0.001255554   -0.092118300   -0.000000000
   5   B   :    0.001562214    0.092327769   -0.000000000
   6   B   :   -0.001886815   -0.092135945   -0.000000000
   7   B   :    0.000571745    0.090802036    0.000000000
   8   B   :    0.000542822   -0.091837173    0.000000000
   9   B   :   -0.002008273    0.090461631   -0.000000000
  10   B   :   -0.000476688   -0.091902205    0.000000000
  11   B   :   -0.002941783    0.085676221   -0.000000000
  12   B   :    0.051019408   -0.037890372    0.000000000

Difference to translation invariance:
           :    0.0000000000   -0.0000000000    0.0000000000

Difference to rotation invariance:
           :   -0.0000000000    0.0000000000   -0.0000000708

Norm of the Cartesian gradient     ...    0.3006516591
RMS gradient                       ...    0.0501086099
MAX gradient                       ...    0.0923277687
------------------------------------------------------------------------------
                         ORCA GEOMETRY RELAXATION STEP
------------------------------------------------------------------------------

Reading the OPT-File                    .... done
Getting information on internals        .... done
Copying old internal coords+grads       .... done
Making the new internal coordinates     .... (2022 redundants) done
Validating the new internal coordinates .... (2022 redundants) done
Calculating the B-matrix                .... done
Calculating the G,G- and P matrices     .... done
Transforming gradient to internals      .... done
Projecting the internal gradient        .... done
Number of atoms                         ....  12
Number of internal coordinates          ....  31
Current Energy                          ....   -12.497915360 Eh
Current gradient norm                   ....     0.300651659 Eh/bohr
Maximum allowed component of the step   ....  0.300
Current trust radius                    ....  0.300
Updating the Hessian (BFGS)             .... done
Forming the augmented Hessian           .... done
Diagonalizing the augmented Hessian     .... done
Last element of RFO vector              ....  0.731844783
Lowest eigenvalues of augmented Hessian:
 -0.205052793  0.010000000  0.010000000  0.010000000  0.010000000
Length of the computed step             ....  0.931169254
Warning: the length of the step is outside the trust region - taking restricted step instead
The input lambda is                     ....     0.009000
   iter:   5  x=   -0.024988  g= 2725.273502 f(x)=    40.389061
   iter:  10  x=   -0.325201  g=    6.423971 f(x)=     0.700003
   iter:  15  x=   -0.702507  g=    0.245424 f(x)=     0.000235
The output lambda is                    ....    -0.702509 (18 iterations)
The final length of the internal step   ....  0.300000000
Converting the step to Cartesian space:
 Initial RMS(Int)=    0.0538815906
Transforming coordinates:
 Iter   0:  RMS(Cart)=    0.1067637825 RMS(Int)=    0.0528873875
 Iter   5:  RMS(Cart)=    0.0000000335 RMS(Int)=    0.0000000181
done
Storing new coordinates                 .... done
The predicted energy change is          ....    -0.064796761
Previously predicted energy change      ....    -0.062443637
Actually observed energy change         ....    -0.065270307
Ratio of predicted to observed change   ....     1.045267543
New trust radius                        ....     0.450000000

                                .--------------------.
          ----------------------|Geometry convergence|-------------------------
          Item                value                   Tolerance       Converged
          ---------------------------------------------------------------------
          Energy change      -0.0652703069            0.0000010000      NO
          RMS gradient        0.0397760639            0.0000300000      NO
          MAX gradient        0.0672960135            0.0001000000      NO
          RMS step            0.0538815906            0.0006000000      NO
          MAX step            0.0933321511            0.0010000000      NO
          -------------------------------------------------------------------------
          ........................................................
          Max(Bonds)      0.0494      Max(Angles)    2.75
          Max(Dihed)        0.00      Max(Improp)    0.00
          ---------------------------------------------------------------------

The optimization has not yet converged - more geometry cycles are needed


    ---------------------------------------------------------------------------
                         Redundant Internal Coordinates
                            (Angstroem and degrees)

        Definition                    Value    dE/dq     Step     New-Value
    ----------------------------------------------------------------------------
     1. B(B   1,B   0)                2.3806  0.063646 -0.0467    2.3339   
     2. B(B   2,B   1)                2.3788  0.067296 -0.0494    2.3294   
     3. B(B   3,B   2)                2.3808  0.064173 -0.0471    2.3337   
     4. B(B   4,B   3)                2.3810  0.064197 -0.0471    2.3339   
     5. B(B   5,B   4)                2.3809  0.064063 -0.0470    2.3338   
     6. B(B   6,B   5)                2.3853  0.058857 -0.0426    2.3427   
     7. B(B   7,B   6)                2.3852  0.058779 -0.0425    2.3427   
     8. B(B   8,B   7)                2.3854  0.058907 -0.0426    2.3428   
     9. B(B   9,B   8)                2.3852  0.058846 -0.0426    2.3426   
    10. B(B  10,B   9)                2.3832  0.062084 -0.0449    2.3383   
    11. B(B  11,B   5)               11.5864  0.006654 -0.0057   11.5807   
    12. B(B  11,B  10)                2.3850  0.058009 -0.0420    2.3430   
    13. A(B   0,B   1,B   2)          106.39 -0.014533    0.96    107.35   
    14. A(B   1,B   2,B   3)          106.85 -0.020143    1.33    108.18   
    15. A(B   2,B   3,B   4)          106.97 -0.022867    1.51    108.48   
    16. A(B   3,B   4,B   5)          106.93 -0.022244    1.47    108.41   
    17. A(B   4,B   5,B   6)          106.97 -0.022180    1.47    108.44   
    18. A(B   5,B   6,B   7)          108.36 -0.038631    2.75    111.11   
    19. A(B   6,B   7,B   8)          106.93 -0.022626    1.50    108.43   
    20. A(B   7,B   8,B   9)          108.36 -0.038311    2.73    111.09   
    21. A(B   8,B   9,B  10)          106.85 -0.020647    1.37    108.22   
    22. A(B   9,B  10,B  11)          107.77 -0.031344    2.27    110.04   
    23. D(B   3,B   2,B   1,B   0)   -180.00 -0.000000    0.00   -180.00   
    24. D(B   4,B   3,B   2,B   1)    180.00  0.000000   -0.00    180.00   
    25. D(B   5,B   4,B   3,B   2)    180.00 -0.000000   -0.00    180.00   
    26. D(B   6,B   5,B   4,B   3)   -180.00  0.000000    0.00   -180.00   
    27. D(B   7,B   6,B   5,B   4)   -180.00 -0.000000    0.00   -180.00   
    28. D(B   8,B   7,B   6,B   5)    180.00 -0.000000   -0.00    180.00   
    29. D(B   9,B   8,B   7,B   6)    180.00 -0.000000   -0.00    180.00   
    30. D(B  10,B   9,B   8,B   7)   -180.00 -0.000000    0.00   -180.00   
    31. D(B  11,B  10,B   9,B   8)   -180.00 -0.000000    0.00   -180.00   
    ----------------------------------------------------------------------------

Geometry step timings:
Preparation and reading OPT file:      0.000 s ( 1.779 %)
Internal coordinates            :      0.000 s ( 1.715 %)
B/P matrices and projection     :      0.000 s (22.999 %)
Hessian update/contruction      :      0.000 s (20.140 %)
Making the step                 :      0.000 s (22.363 %)
Converting the step to Cartesian:      0.000 s ( 4.638 %)
Storing new data                :      0.000 s ( 2.668 %)
Checking convergence            :      0.000 s ( 3.875 %)
Final printing                  :      0.000 s (19.822 %)
Total time                      :      0.002 s

Time for energy+gradient        :      0.067 s
Time for complete geometry iter :      0.070 s

         *************************************************************
         *                GEOMETRY OPTIMIZATION CYCLE   3            *
         *************************************************************
---------------------------------
CARTESIAN COORDINATES (ANGSTROEM)
---------------------------------
  B   -10.401292    0.888827   -0.000000
  B    -8.577298   -0.567194    0.000000
  B    -6.647293    0.737154    0.000000
  B    -4.802465   -0.692101    0.000000
  B    -2.861895    0.604573   -0.000000
  B    -1.018852   -0.827208    0.000000
  B     0.930589    0.473677    0.000000
  B     2.853507   -0.866034    0.000000
  B     4.733073    0.534011   -0.000000
  B     6.721891   -0.705590   -0.000000
  B     8.518205    0.792671    0.000000
  B    10.551829   -0.372788   -0.000000

----------------------------
CARTESIAN COORDINATES (A.U.)
----------------------------
  NO LB    ZA    FRAG    MASS        X           Y           Z
   0 B   5.0000    0    10.810  -19.655593    1.679639   -0.000000
   1 B   5.0000    0    10.810  -16.208744   -1.071840    0.000000
   2 B   5.0000    0    10.810  -12.561563    1.393019    0.000000
   3 B   5.0000    0    10.810   -9.075344   -1.307881    0.000000
   4 B   5.0000    0    10.810   -5.408199    1.142478   -0.000000
   5 B   5.0000    0    10.810   -1.925351   -1.563197    0.000000
   6 B   5.0000    0    10.810    1.758559    0.895120    0.000000
   7 B   5.0000    0    10.810    5.392347   -1.636567    0.000000
   8 B   5.0000    0    10.810    8.944212    1.009135   -0.000000
   9 B   5.0000    0    10.810   12.702534   -1.333371   -0.000000
  10 B   5.0000    0    10.810   16.097075    1.497930    0.000000
  11 B   5.0000    0    10.810   19.940067   -0.704466   -0.000000

      -----------------------------------------------------------      
     |                   =====================                   |     
     |                           x T B                           |     
     |                   =====================                   |     
     |                         S. Grimme                         |     
     |          Mulliken Center for Theoretical Chemistry        |     
     |                    University of Bonn                     |     
      -----------------------------------------------------------      

   * xtb version 6.6.1 (unknown) compiled by 'builduser@buildhost' on 2023-08-07

   xtb is free software: you can redistribute it and/or modify it under
   the terms of the GNU Lesser General Public License as published by
   the Free Software Foundation, either version 3 of the License, or
   (at your option) any later version.
   
   xtb is distributed in the hope that it will be useful,
   but WITHOUT ANY WARRANTY; without even the implied warranty of
   MERCHANTABILITY or FITNESS FOR A PARTICULAR PURPOSE.  See the
   GNU Lesser General Public License for more details.
   
   Cite this work as:
   * C. Bannwarth, E. Caldeweyher, S. Ehlert, A. Hansen, P. Pracht,
     J. Seibert, S. Spicher, S. Grimme, WIREs Comput. Mol. Sci., 2020, 11,
     e01493. DOI: 10.1002/wcms.1493
   
   for GFN2-xTB:
   * C. Bannwarth, S. Ehlert and S. Grimme., J. Chem. Theory Comput., 2019,
     15, 1652-1671. DOI: 10.1021/acs.jctc.8b01176
   for GFN1-xTB:
   * S. Grimme, C. Bannwarth, P. Shushkov, J. Chem. Theory Comput., 2017,
     13, 1989-2009. DOI: 10.1021/acs.jctc.7b00118
   for GFN0-xTB:
   * P. Pracht, E. Caldeweyher, S. Ehlert, S. Grimme, ChemRxiv, 2019, preprint.
     DOI: 10.26434/chemrxiv.8326202.v1
   for GFN-FF:
   * S. Spicher and S. Grimme, Angew. Chem. Int. Ed., 2020, 59, 15665-15673.
     DOI: 10.1002/anie.202004239
   
   for ALPB and GBSA implicit solvation:
   * S. Ehlert, M. Stahn, S. Spicher, S. Grimme, J. Chem. Theory Comput.,
     2021, 17, 4250-4261. DOI: 10.1021/acs.jctc.1c00471
   
   for DFT-D4:
   * E. Caldeweyher, C. Bannwarth and S. Grimme, J. Chem. Phys., 2017,
     147, 034112. DOI: 10.1063/1.4993215
   * E. Caldeweyher, S. Ehlert, A. Hansen, H. Neugebauer, S. Spicher,
     C. Bannwarth and S. Grimme, J. Chem. Phys., 2019, 150, 154122.
     DOI: 10.1063/1.5090222
   * E. Caldeweyher, J.-M. Mewes, S. Ehlert and S. Grimme, Phys. Chem. Chem. Phys.
     2020, 22, 8499-8512. DOI: 10.1039/D0CP00502A
   
   for sTDA-xTB:
   * S. Grimme and C. Bannwarth, J. Chem. Phys., 2016, 145, 054103.
     DOI: 10.1063/1.4959605
   
   in the mass-spec context:
   * V. Asgeirsson, C. Bauer and S. Grimme, Chem. Sci., 2017, 8, 4879.
     DOI: 10.1039/c7sc00601b
   * J. Koopman and S. Grimme, ACS Omega 2019, 4, 12, 15120-15133.
     DOI: 10.1021/acsomega.9b02011
   
   for metadynamics refer to:
   * S. Grimme, J. Chem. Theory Comput., 2019, 155, 2847-2862
     DOI: 10.1021/acs.jctc.9b00143
   
   for SPH calculations refer to:
   * S. Spicher and S. Grimme, J. Chem. Theory Comput., 2021, 17, 1701-1714
     DOI: 10.1021/acs.jctc.0c01306
   
   with help from (in alphabetical order)
   P. Atkinson, C. Bannwarth, F. Bohle, G. Brandenburg, E. Caldeweyher
   M. Checinski, S. Dohm, S. Ehlert, S. Ehrlich, I. Gerasimov, C. Hölzer
   A. Katbashev, J. Koopman, C. Lavigne, S. Lehtola, F. März, M. Müller,
   F. Musil, H. Neugebauer, J. Pisarek, C. Plett, P. Pracht, F. Pultar,
   J. Seibert, P. Shushkov, S. Spicher, M. Stahn, M. Steiner, T. Strunk,
   J. Stückrath, T. Rose, and J. Unsleber
   
 * started run on 2026/04/17 at 12:15:00.154     

           -------------------------------------------------
          |                Calculation Setup                |
           -------------------------------------------------

          program call               : /usr/bin/xtb zigzag_chain12_d2.10_m3_XTB.xyz --grad -c 0 -u 2 -P 1 --namespace zigzag_chain12_d2.10_m3 --input zigzag_chain12_d2.10_m3_XTB.input.tmp --acc 0.200000
          calculation namespace      : zigzag_chain12_d2.10_m3
          coordinate file            : zigzag_chain12_d2.10_m3_XTB.xyz
          omp threads                :                     1

   ID    Z sym.   atoms
    1    5 B      1-12

molecular fragmentation (1/2 indicates fragments):
122222222222
# atoms in fragment 1/2:     1    11
 fragment masses (1/2) :       10.81      118.92
CMA distance (Bohr)    :  21.521
constraining FC (au)   :  0.0500

           -------------------------------------------------
          |                 G F N 2 - x T B                 |
           -------------------------------------------------

        Reference                      10.1021/acs.jctc.8b01176
      * Hamiltonian:
        H0-scaling (s, p, d)           1.850000    2.230000    2.230000
        zeta-weighting                 0.500000
      * Dispersion:
        s8                             2.700000
        a1                             0.520000
        a2                             5.000000
        s9                             5.000000
      * Repulsion:
        kExp                           1.500000    1.000000
        rExp                           1.000000
      * Coulomb:
        alpha                          2.000000
        third order                    shell-resolved
        anisotropic                    true
        a3                             3.000000
        a5                             4.000000
        cn-shift                       1.200000
        cn-exp                         4.000000
        max-rad                        5.000000

q/qsh data taken from xtbrestart
CAMM data taken from xtbrestart

          ...................................................
          :                      SETUP                      :
          :.................................................:
          :  # basis functions                  48          :
          :  # atomic orbitals                  48          :
          :  # shells                           24          :
          :  # electrons                        36          :
          :  max. iterations                   250          :
          :  Hamiltonian                  GFN2-xTB          :
          :  restarted?                       true          :
          :  GBSA solvation                  false          :
          :  PC potential                    false          :
          :  electronic temp.          300.0000000     K    :
          :  accuracy                    0.2000000          :
          :  -> integral cutoff          0.3198970E+02      :
          :  -> integral neglect         0.2000000E-08      :
          :  -> SCF convergence          0.2000000E-06 Eh   :
          :  -> wf. convergence          0.2000000E-04 e    :
          :  Broyden damping             0.4000000          :
          ...................................................

 iter      E             dE          RMSdq      gap      omega  full diag
   1    -12.5640641 -0.125641E+02  0.123E+00    0.06       0.0  T
   2    -12.2658129  0.298251E+00  0.322E+00    0.09       1.0  T
   3    -12.1394560  0.126357E+00  0.316E+00    0.09       1.0  T
   4    -11.8412045  0.298252E+00  0.454E+00    0.04       1.0  T
   5    -12.2859734 -0.444769E+00  0.291E+00    0.04       1.0  T
   6    -10.4797310  0.180624E+01  0.747E+00    0.15       1.0  T
   7    -11.6391025 -0.115937E+01  0.478E+00    0.08       1.0  T
   8    -12.1539724 -0.514870E+00  0.369E+00    0.02       1.0  T
   9    -12.2751463 -0.121174E+00  0.280E+00    0.10       1.0  T
  10    -12.3428375 -0.676912E-01  0.227E+00    0.05       1.0  T
  11    -12.4971956 -0.154358E+00  0.146E+00    0.09       1.0  T
  12    -12.5476998 -0.505042E-01  0.820E-01    0.07       1.0  T
  13    -12.5630243 -0.153246E-01  0.443E-01    0.06       1.0  T
  14    -12.5639358 -0.911498E-03  0.401E-01    0.06       1.0  T
  15    -12.5640195 -0.836651E-04  0.384E-01    0.06       1.0  T
  16    -12.5642063 -0.186755E-03  0.348E-01    0.06       1.0  T
  17    -12.5640637  0.142603E-03  0.372E-01    0.06       1.0  T
  18    -12.5636362  0.427443E-03  0.361E-01    0.06       1.0  T
  19    -12.5631063  0.529912E-03  0.388E-01    0.06       1.0  T
  20    -12.5637445 -0.638171E-03  0.322E-01    0.06       1.0  T
  21    -12.5647580 -0.101350E-02  0.241E-01    0.06       1.0  T
  22    -12.5648958 -0.137853E-03  0.201E-01    0.06       1.0  T
  23    -12.5648445  0.512835E-04  0.209E-01    0.06       1.0  T
  24    -12.5651073 -0.262732E-03  0.143E-01    0.06       1.0  T
[...]
          :  restarted?                       true          :
          :  GBSA solvation                  false          :
          :  PC potential                    false          :
          :  electronic temp.          300.0000000     K    :
          :  accuracy                    0.2000000          :
          :  -> integral cutoff          0.3198970E+02      :
          :  -> integral neglect         0.2000000E-08      :
          :  -> SCF convergence          0.2000000E-06 Eh   :
          :  -> wf. convergence          0.2000000E-04 e    :
          :  Broyden damping             0.4000000          :
          ...................................................

 iter      E             dE          RMSdq      gap      omega  full diag
   1    -14.3516185 -0.143516E+02  0.572E-01    0.44       0.0  T
   2    -14.3514590  0.159494E-03  0.359E-01    0.43       1.0  T
   3    -14.2703057  0.811534E-01  0.144E+00    0.20       1.0  T
   4    -14.3506514 -0.803457E-01  0.173E-01    0.43       1.0  T
   5    -14.3511205 -0.469129E-03  0.116E-01    0.45       1.0  T
   6    -14.3514930 -0.372493E-03  0.626E-02    0.43       1.0  T
   7    -14.3514840  0.895986E-05  0.644E-02    0.44       1.0  T
   8    -14.3515498 -0.657798E-04  0.459E-02    0.43       1.0  T
   9    -14.3515556 -0.573805E-05  0.450E-02    0.44       1.0  T
  10    -14.3515825 -0.269239E-04  0.348E-02    0.44       1.0  T
  11    -14.3516167 -0.342251E-04  0.176E-02    0.44       1.6  T
  12    -14.3516281 -0.114005E-04  0.399E-03    0.44       7.2  T
  13    -14.3516285 -0.434009E-06  0.186E-03    0.44      15.6  T
  14    -14.3516285  0.110165E-07  0.177E-03    0.44      16.3  T
  15    -14.3516285 -0.137165E-07  0.150E-03    0.44      19.3  T
  16    -14.3516286 -0.539783E-07  0.344E-04    0.44      83.8  T
  17    -14.3516286 -0.121252E-08  0.263E-04    0.44     109.6  T
  18    -14.3516286 -0.962460E-09  0.112E-04    0.44     257.8  T
  19    -14.3516286 -0.222029E-09  0.199E-05    0.44    1454.0  T

   *** convergence criteria satisfied after 19 iterations ***

         #    Occupation            Energy/Eh            Energy/eV
      -------------------------------------------------------------
         1        2.0000           -0.3917599             -10.6603
       ...           ...                  ...                  ...
        13        2.0000           -0.2770036              -7.5377
        14        2.0000           -0.2745697              -7.4714
        15        2.0000           -0.2745678              -7.4714
        16        1.9997           -0.2622902              -7.1373
        17        1.9997           -0.2622894              -7.1373
        18        1.0001           -0.2468050              -6.7159
        19        1.0001           -0.2468028              -6.7158 (HOMO)
        20        0.0002           -0.2306805              -6.2771 (LUMO)
        21        0.0002           -0.2303913              -6.2693
        22                         -0.2231422              -6.0720
        23                         -0.2231310              -6.0717
        24                         -0.1879911              -5.1155
       ...                                ...                  ...
        48                          1.4480962              39.4047
      -------------------------------------------------------------
                  HL-Gap            0.0161223 Eh            0.4387 eV
             Fermi-level           -0.2466112 Eh           -6.7106 eV

 transition dipole moment (au) for excitation:          18          19
     X       Y       Z   
  -0.0005   0.0019   0.0009  total (au/Debye):    0.002   0.005
 dE (eV)             :    0.000
 oscillator strength :  0.93649E-11

 SCC (total)                   0 d,  0 h,  0 min,  0.035 sec
 SCC setup                      ...        0 min,  0.000 sec (  0.435%)
 Dispersion                     ...        0 min,  0.000 sec (  0.273%)
 classical contributions        ...        0 min,  0.000 sec (  0.099%)
 integral evaluation            ...        0 min,  0.002 sec (  6.116%)
 iterations                     ...        0 min,  0.025 sec ( 72.484%)
 molecular gradient             ...        0 min,  0.004 sec ( 12.358%)
 printout                       ...        0 min,  0.003 sec (  8.140%)

         :::::::::::::::::::::::::::::::::::::::::::::::::::::
         ::                     SUMMARY                     ::
         :::::::::::::::::::::::::::::::::::::::::::::::::::::
         :: total energy             -14.059313777422 Eh    ::
         :: gradient norm              0.004628267512 Eh/a0 ::
         :: HOMO-LUMO gap              0.438709022610 eV    ::
         ::.................................................::
         :: SCC energy               -14.351628599771 Eh    ::
         :: -> isotropic ES            0.112123300143 Eh    ::
         :: -> anisotropic ES          0.000567504830 Eh    ::
         :: -> anisotropic XC         -0.049565986760 Eh    ::
         :: -> dispersion             -0.009486520632 Eh    ::
         :: repulsion energy           0.292530394244 Eh    ::
         :: add. restraining           0.000000000000 Eh    ::
         :: total charge               0.000000000000 e     ::
         :::::::::::::::::::::::::::::::::::::::::::::::::::::


Property printout bound to 'properties.out'

           -------------------------------------------------
          | TOTAL ENERGY              -14.059313777422 Eh   |
          | GRADIENT NORM               0.004628267512 Eh/α |
          | HOMO-LUMO GAP               0.438709022610 eV   |
           -------------------------------------------------

------------------------------------------------------------------------
 * finished run on 2026/04/17 at 12:15:03.879     
------------------------------------------------------------------------
 total:
 * wall-time:     0 d,  0 h,  0 min,  0.047 sec
 *  cpu-time:     0 d,  0 h,  0 min,  0.047 sec
 * ratio c/w:     0.999 speedup
 SCF:
 * wall-time:     0 d,  0 h,  0 min,  0.035 sec
 *  cpu-time:     0 d,  0 h,  0 min,  0.035 sec
 * ratio c/w:     1.000 speedup


-------------------------   --------------------
FINAL SINGLE POINT ENERGY       -14.059313777420
-------------------------   --------------------


-------------
DIPOLE MOMENT
-------------
                                X             Y             Z
Total Dipole Moment    :      0.00700       0.06100      -0.01900
                        -----------------------------------------
Magnitude (a.u.)       :      0.06427
Magnitude (Debye)      :      0.16337


------------------
CARTESIAN GRADIENT
------------------

   1   B   :    0.003449340   -0.000060741   -0.000130553
   2   B   :   -0.002582285   -0.000080999    0.000331913
   3   B   :   -0.001266315    0.000256849   -0.000186656
   4   B   :   -0.000061992   -0.000197478   -0.000061522
   5   B   :    0.000624474    0.000051079    0.000068219
   6   B   :    0.000013307    0.000081324   -0.000033223
   7   B   :   -0.000110717   -0.000129348    0.000024766
   8   B   :    0.000036772    0.000092102   -0.000021176
   9   B   :    0.000104392   -0.000099846    0.000013272
  10   B   :    0.000469289    0.000183389   -0.000007299
  11   B   :   -0.000308750   -0.000123181    0.000002469
  12   B   :   -0.000367516    0.000026849   -0.000000209

Difference to translation invariance:
           :   -0.0000000000    0.0000000000   -0.0000000000

Difference to rotation invariance:
           :    0.0000000000   -0.0000000012   -0.0000000034

Norm of the Cartesian gradient     ...    0.0046282675
RMS gradient                       ...    0.0007713779
MAX gradient                       ...    0.0034493398
------------------------------------------------------------------------------
                         ORCA GEOMETRY RELAXATION STEP
------------------------------------------------------------------------------

Reading the OPT-File                    .... done
Getting information on internals        .... done
Copying old internal coords+grads       .... done
Making the new internal coordinates     .... (2022 redundants) done
Validating the new internal coordinates .... (2022 redundants) done
Calculating the B-matrix                .... done
Calculating the G,G- and P matrices     .... done
Transforming gradient to internals      .... done
Projecting the internal gradient        .... done
Number of atoms                         ....  12
Number of internal coordinates          ....  31
Current Energy                          ....   -14.059313777 Eh
Current gradient norm                   ....     0.004628268 Eh/bohr
Maximum allowed component of the step   ....  0.300
Current trust radius                    ....  0.100
Updating the Hessian (BFGS)             .... done
Forming the augmented Hessian           .... done
Diagonalizing the augmented Hessian     .... done
Last element of RFO vector              ....  0.730196813
Lowest eigenvalues of augmented Hessian:
 -0.000598897  0.000527431  0.005600977  0.006787304  0.007734562
Length of the computed step             ....  0.935688645
Warning: the length of the step is outside the trust region - taking restricted step instead
The input lambda is                     ....    -0.000997
   iter:   5  x=   -0.005353  g=    8.121796 f(x)=     0.008611
   iter:  10  x=   -0.006012  g=    3.011743 f(x)=     0.000000
The output lambda is                    ....    -0.006012 (10 iterations)
The final length of the internal step   ....  0.100000000
Converting the step to Cartesian space:
 Initial RMS(Int)=    0.0179605302
Transforming coordinates:
 Iter   0:  RMS(Cart)=    0.0628953608 RMS(Int)=    0.0083219911
 Iter   5:  RMS(Cart)=    0.0071659740 RMS(Int)=    0.0007190957
 Iter  10:  RMS(Cart)=    0.0008042508 RMS(Int)=    0.0000847419
 Iter  15:  RMS(Cart)=    0.0000901671 RMS(Int)=    0.0000100378
 Iter  20:  RMS(Cart)=    0.0000101516 RMS(Int)=    0.0000012022
 Iter  25:  RMS(Cart)=    0.0000011477 RMS(Int)=    0.0000001445
 Iter  30:  RMS(Cart)=    0.0000001302 RMS(Int)=    0.0000000173
done
Storing new coordinates                 .... done
The predicted energy change is          ....    -0.000088518
Previously predicted energy change      ....    -0.000035426
Actually observed energy change         ....    -0.000034317
Ratio of predicted to observed change   ....     0.968686638
New trust radius                        ....     0.150000000

                                .--------------------.
          ----------------------|Geometry convergence|-------------------------
          Item                value                   Tolerance       Converged
          ---------------------------------------------------------------------
          Energy change      -0.0000343168            0.0000010000      NO
          RMS gradient        0.0006673976            0.0000300000      NO
          MAX gradient        0.0034425341            0.0001000000      NO
          RMS step            0.0179605302            0.0006000000      NO
          MAX step            0.0635972561            0.0010000000      NO
          -------------------------------------------------------------------------
          ........................................................
          Max(Bonds)      0.0122      Max(Angles)    3.64
          Max(Dihed)        0.00      Max(Improp)    0.00
          ---------------------------------------------------------------------

The optimization has not yet converged - more geometry cycles are needed


    ---------------------------------------------------------------------------
                         Redundant Internal Coordinates
                            (Angstroem and degrees)

        Definition                    Value    dE/dq     Step     New-Value
    ----------------------------------------------------------------------------
     1. B(B   1,B   0)                1.4272 -0.003443  0.0122    1.4394   
     2. B(B   2,B   1)                1.5075 -0.000872  0.0047    1.5121   
     3. B(B   3,B   2)                1.5289  0.000403 -0.0038    1.5250   
     4. B(B   4,B   3)                1.5150  0.000459 -0.0048    1.5102   
     5. B(B   5,B   4)                1.5163 -0.000164  0.0004    1.5167   
     6. B(B   6,B   5)                1.5224 -0.000176  0.0010    1.5234   
     7. B(B   7,B   6)                1.5165 -0.000066  0.0002    1.5168   
     8. B(B   8,B   7)                1.5142 -0.000103  0.0001    1.5143   
     9. B(B   9,B   8)                1.5278 -0.000207  0.0015    1.5293   
    10. B(B  10,B   9)                1.5077 -0.000676  0.0036    1.5113   
    11. B(B  11,B  10)                1.4301 -0.000368  0.0017    1.4318   
    12. L(B   0,B   1,B   2, 2)       178.55 -0.000203   -0.45    178.11   
    13. L(B   0,B   1,B   2, 1)       178.89 -0.000162    1.25    180.14   
    14. L(B   1,B   2,B   3, 1)       179.62 -0.000059    1.13    180.75   
    15. L(B   1,B   2,B   3, 2)       180.16  0.000003    0.05    180.21   
    16. L(B   2,B   3,B   4, 2)       180.18  0.000018    0.05    180.23   
    17. L(B   2,B   3,B   4, 1)       179.06 -0.000158    2.46    181.52   
    18. L(B   3,B   4,B   5, 1)       179.47 -0.000065    3.64    183.12   
    19. L(B   3,B   4,B   5, 2)       179.90 -0.000027   -0.04    179.86   
    20. L(B   4,B   5,B   6, 2)       179.98 -0.000004   -0.00    179.98   
    21. L(B   4,B   5,B   6, 1)       179.71 -0.000035    1.59    181.30   
    22. L(B   5,B   6,B   7, 2)       179.95 -0.000015   -0.01    179.94   
    23. L(B   5,B   6,B   7, 1)       179.49 -0.000085   -1.02    178.47   
    24. L(B   6,B   7,B   8, 2)       180.01 -0.000000    0.00    180.01   
    25. L(B   6,B   7,B   8, 1)       179.87 -0.000005    0.91    180.78   
    26. L(B   7,B   8,B   9, 1)       180.03 -0.000016    0.92    180.95   
    27. L(B   7,B   8,B   9, 2)       179.98 -0.000007   -0.00    179.97   
    28. L(B   8,B   9,B  10, 2)       180.00 -0.000001    0.00    180.00   
    29. L(B   8,B   9,B  10, 1)       180.39  0.000072   -1.56    178.83   
    30. L(B   9,B  10,B  11, 2)       180.00 -0.000001   -0.00    180.00   
    31. L(B   9,B  10,B  11, 1)       179.79 -0.000027    0.32    180.11   
    ----------------------------------------------------------------------------

Geometry step timings:
Preparation and reading OPT file:      0.000 s ( 2.380 %)
Internal coordinates            :      0.000 s ( 1.785 %)
B/P matrices and projection     :      0.000 s (22.368 %)
Hessian update/contruction      :      0.000 s (18.739 %)
Making the step                 :      0.000 s (23.200 %)
Converting the step to Cartesian:      0.000 s ( 8.388 %)
Storing new data                :      0.000 s ( 2.499 %)
Checking convergence            :      0.000 s ( 3.807 %)
Final printing                  :      0.000 s (16.716 %)
Total time                      :      0.002 s

Time for energy+gradient        :      0.069 s
Time for complete geometry iter :      0.072 s




    ----------------------------------------------------------------------------
                                  WARNING !!!
       The optimization did not converge but reached the maximum number of
       optimization cycles.
       Please check your results very carefully.
    ----------------------------------------------------------------------------



--------------------------------
SUGGESTED CITATIONS FOR THIS RUN
--------------------------------

Below you find a list of papers that are relevant to this ORCA run
We neither can nor want to force you to cite these papers, but we appreciate if you do
You receive ORCA, which is the product of decades of hard work by many enthusiastic individuals, for free
The only thing we kindly ask in return is that you cite our papers,
We deeply appreciate it, if you show your appreciation for ORCA by not just citing the generic ORCA reference.

Please note that relegating all ORCA citations to the supporting information does *not* help us.
SI sections are not indexed - citations you put there will not count into any citation statistics
But we need these citations in order to attract the funding resources that allow us to do what we are doing

Therefore, if you are a happy ORCA user, please consider citing a few of the papers listed below in the main body of your paper

In addition to the list printed below, the program has created the file zigzag_chain12_d2.10_m3.bibtex that contains the list in bibtex format
You can import this file easily into all common literature databanks and citation aid programs

It goes without saying that in many instances, there are alternative algorithms to achieve similar
results as the ones you have gotten from ORCA. It is, of course, also the case that in some instances
ORCA just re-implements algorithms worked out by others. We are fully aware of that and we are also
fully appreciative of our colleagues work. Hence this citation list should not be read as indicating
that the listed papers, which are focused on our own work, are the only ones worth citing. It simply
meant to make it easier for users to cite ORCA specific papers. It is not a substitute for doing your
own literature research and citing the relevant literature in a scientifically appropriate manner.

List of essential papers. We consider these as the minimum necessary citations

  1. Bannwarth, C.; Ehlert, S.; Grimme, S.
     GFN2-xTB—An Accurate and Broadly Parametrized Self-Consistent Tight-Binding Quantum Chemical Method with Multipole Electrostatics and Density-Dependent Dispersion Contributions
     J. Chem. Theory Comput. 2019 15(3), 1652-1671
     doi.org/10.1021/acs.jctc.8b01176
  2. Neese, F.
     Software update: the ORCA program system, version 6.0
     WIRES Comput. Molec. Sci. 2025 15(1), e70019
     doi.org/10.1002/wcms.70019

List of papers to cite with high priority. The work reported in these papers was absolutely
necessary for this run to complete.
Our perspective: the developers of density functionals and basis sets usually get cited in chemistry papers
Good! But without the algorithms to do something with them, the functionals or basis sets would not do anything.
Hence, in our opinion, the algorithm design and method developments papers are equally worthy of getting cited

  1. Bannwarth, C.; Caldeweyher, E.; Ehlert, S.; Hansen, A.; Pracht, P.; Seibert, J.; Spicher, S.; Grimme, S.
     Extended tight-binding quantum chemistry methods
     WIRES Comput. Molec. Sci. 2020 11(2), e1493
     doi.org/10.1002/wcms.1493

List of suggested additional citations. These are papers that are important in the 'surrounding' of 
of this run, or papers that preceded the highly important papers. If you like your results we are grateful for a citation.

  1. Neese, F.
     The ORCA program system
     WIRES Comput. Molec. Sci. 2012 2(1), 73-78
     doi.org/10.1002/wcms.81
  2. Neese, F.
     Software update: the ORCA program system, version 4.0
     WIRES Comput. Molec. Sci. 2018 8(1), 1-6
     doi.org/10.1002/wcms.1327
  3. Neese, F.; Wennmohs, F.; Becker, U.; Riplinger, C.
     The ORCA quantum chemistry program package
     J. Chem. Phys. 2020 152(22), 224108
     doi.org/10.1063/5.0004608
  4. Neese, F.
     Software update: The ORCA program system—Version 5.0
     WIRES Comput. Molec. Sci. 2022 12(1), e1606
     doi.org/10.1002/wcms.1606

List of optional additional citations

  1. Neese, F.
     Approximate second-order SCF convergence for spin unrestricted wavefunctions
     Chem. Phys. Lett. 2000 325(1-3), 93-98
     doi.org/10.1016/s0009-2614(00)00662-x

Timings for individual modules:

Sum of individual times          ...        3.469 sec (=   0.058 min)
Geometry relaxation              ...        0.277 sec (=   0.005 min)   8.0 %
XTB module                       ...        3.191 sec (=   0.053 min)  92.0 %
                             ****ORCA TERMINATED NORMALLY****
TOTAL RUN TIME: 0 days 0 hours 0 minutes 4 seconds 59 msec
