
                                 *****************
                                 * O   R   C   A *
                                 *****************

                                            #,                                       
                                            ###                                      
                                            ####                                     
                                            #####                                    
                                            ######                                   
                                           ########,                                 
                                     ,,################,,,,,                         
                               ,,#################################,,                 
                          ,,##########################################,,             
                       ,#########################################, ''#####,          
                    ,#############################################,,   '####,        
                  ,##################################################,,,,####,       
                ,###########''''           ''''###############################       
              ,#####''   ,,,,##########,,,,          '''####'''          '####       
            ,##' ,,,,###########################,,,                        '##       
           ' ,,###''''                  '''############,,,                           
         ,,##''                                '''############,,,,        ,,,,,,###''
      ,#''                                            '''#######################'''  
     '                                                          ''''####''''         
             ,#######,   #######,   ,#######,      ##                                
            ,#'     '#,  ##    ##  ,#'     '#,    #''#        ,####,    ,#,          
            ##       ##  ##   ,#'  ##            #'  '#       #'       ,# #          
            ##       ##  #######   ##           ,######,      #####,      #          
            '#,     ,#'  ##    ##  '#,     ,#' ,#      #,     #,   #      #          
             '#######'   ##     ##  '#######'  #'      '#     '####' #    #          



                #########################################################
                #                        -***-                          #
                #          Department of theory and spectroscopy        #
                #                                                       #
                #                      Frank Neese                      #
                #                                                       #
                #     Directorship, Architecture, Infrastructure        #
                #                    SHARK, DRIVERS                     #
                #        Core code/Algorithms in most modules           #
                #                                                       #
                #        Max Planck Institute fuer Kohlenforschung      #
                #                Kaiser Wilhelm Platz 1                 #
                #                 D-45470 Muelheim/Ruhr                 #
                #                      Germany                          #
                #                                                       #
                #                  All rights reserved                  #
                #                        -***-                          #
                #########################################################


                         Program Version 6.1.1  -  RELEASE   -
                                (GIT: $487d211c$)
                          ($2025-11-21 10:33:24 +0100$)
                                                                         
                                  - NO-DMRG VERSION -                    
                                                                         


 With contributions from (in alphabetic order):
[Max-Planck-Institut fuer Kohlenforschung]                               
  Daniel Aravena         : Magnetic Suceptibility                        
  Michael Atanasov       : Ab Initio Ligand Field Theory (pilot matlab implementation)
  Alexander A. Auer      : GIAO ZORA, VPT2 properties, NMR spectrum      
  Ute Becker             : All parallelization in ORCA, NUMFREQ, NUMCALC 
  Giovanni Bistoni       : ED, misc. LED, open-shell LED, HFLD           
  Dmytro Bykov           : pre 5.0 version of the SCF Hessian            
  Marcos Casanova-Páez   : Triplet and SCS-CIS(D). UHF-(DLPNO)-IP/EA/STEOM-CCSD. UHF-CVS-IP/STEOM-CCSD   
  Vijay G. Chilkuri      : MRCI spin determinant printing, contributions to CSF-ICE 
  Pauline Colinet        : FMM embedding                                 
  Dipayan Datta          : RHF DLPNO-CCSD density                        
  Achintya Kumar Dutta   : EOM-CC, STEOM-CC                              
  Nicolas Foglia         : Exact transition moments, OPA infrastructure, MCD improvements    
  Dmitry Ganyushin       : Spin-Orbit,Spin-Spin,Magnetic field MRCI      
  Miquel Garcia-Rates    : C-PCM and meta-GGA Hessian, CCSD/C-PCM, Gaussian charge scheme 
  Tiago L. C. Gouveia    : GS-ROHF, GS-ROCIS                             
  Yang Guo               : DLPNO-NEVPT2, F12-NEVPT2, CIM, IAO-localization        
  Andreas Hansen         : Spin unrestricted coupled pair/coupled cluster methods 
  Ingolf Harden          : AUTO-CI MPn and infrastructure                
  Benjamin Helmich-Paris : MC-RPA, TRAH-(SCF,CASSCF), AVAS, COSX integrals, SCF dyn. polar., MC-PDFT, srDFT 
  Lee Huntington         : MR-EOM, pCC                                   
  Robert Izsak           : Overlap fitted RIJCOSX, COSX-SCS-MP3, EOM     
  Riya Kayal             : Wick's Theorem for AUTO-CI, AUTO-CI UHF-CCSDT 
  Emily Kempfer          : AUTO-CI RHF CISDT and CCSDT, approximate NEVPT4
  Christian Kollmar      : KDIIS, OOCD, Brueckner-CCSD(T), CCSD density, CASPT2, CASPT2-K, improved NEVPT2 
  Axel Koslowski         : Symmetry handling                             
  Simone Kossmann        : meta-GGA functionals, TD-DFT gradient, OOMP2, (MP2 Hessian; deprecated post 5.0) 
  Lucas Lang             : DCDCAS, Hyperfine gauge corrections, ICE-SOC+SSC
  Marvin Lechner         : AUTO-CI (C++ implementation), FIC-MRCC        
  Spencer Leger          : CASSCF response                               
  Dagmar Lenk            : GEPOL surface, SMD, ORCA-2-JSON               
  Dimitrios Liakos       : Extrapolation schemes; Compound Job, Property file
  Dimitrios Manganas     : Further ROCIS development; embedding schemes. LFT, Crystal Embedding 
  Dimitrios Pantazis     : SARC Basis sets                               
  Anastasios Papadopoulos: AUTO-CI, single reference methods and gradients 
  Taras Petrenko         : pre 6.0 DFT Hessian and TD-DFT gradient,  ECA, NRVS 
  Petra Pikulova         : Analytic Raman intensities                    
  Peter Pinski           : DLPNO-MP2, DLPNO-MP2 Gradient                 
  Shashank Vittal Rao    : ES-AILFT, MagRelax                            
  Christoph Reimann      : Effective Core Potentials                     
  Marius Retegan         : Local ZFS, SOC                                
  Christoph Riplinger    : Optimizer, TS searches, QM/MM, DLPNO-CCSD(T), (RO)-DLPNO pert. Triples 
  Michael Roemelt        : Original ROCIS implementation, recursive CI coupling coefficients
  Masaaki Saitow         : Open-shell DLPNO-CCSD energy and density      
  Barbara Sandhoefer     : DKH picture change effects                    
  Yorick L. A. Schmerwitz: GMF and freeze-and-release deltaSCF, NEB S-IDPP initial path                    
  Kantharuban Sivalingam : CASSCF convergence/infrastructure, NEVPT2, NEVPT3, NEVPT4(SD), FIC-MRCI and CEPA variants
  Bernardo de Souza      : ESD, SOC TD-DFT                               
  Georgi L. Stoychev     : AutoAux, RI-MP2 NMR, DLPNO-MP2 response, X2C  
  Van Anh Tran           : RI-MP2 g-tensors                              
  Willem Van den Heuvel  : Paramagnetic NMR                              
  Zikuan Wang            : NOTCH, Electric field optimization            
  Frank Wennmohs         : Technical directorship and infrastructure     
  Hang Xu                : AUTO-CI-Response properties                   
                                                                         
[FACCTs GmbH]                                                            
  Markus Bursch, Nicolas Foglia, Miquel Garcia-Rates, Ingolf Harden, Hagen Neugebauer, Anastasios Papadopoulos, 
  Christoph Riplinger, Bernardo de Souza, Georgi L. Stoychev                                                    
                                                                 
  APM, various basis sets, CI-OPT, improved COSX, DLPNO-Multilevel,           
  DOCKER, DRACO, updates on ESD, Fragmentator, GOAT, IRC, LR-CPCM, L-BFGS, MBIS, meta-GGA TD-DFT gradient, ML-optimized integration grids, 
  MM, NACMEs, nearIR, NEB, NEB-TS, NL-DFT gradient (VV10), 2- and 3-layer-ONIOM, interface openCOSMO-RS, QMMM,   
  Crystal-QMMM, RESP, rigid body optimization, SF, symmetry and pop. for TD-DFT, various functionals, SOLVATOR                                   
                                                                         
[Other institutions]                                                     
  V. Asgeirsson          : NEB                                           
  Christoph Bannwarth    : sTDA-DFT, sTD-DFT, PBEh-3c, B97-3c, D3        
  Giovanni Bistoni       : ETS/NOCV, ADLD/ADEX, COVALED                  
  Martin Brehm           : Molecular dynamics                            
  Ronald Cardenas        : ETS/NOCV                                      
  Martina Colucci        : COVALED                                       
  Sebastian Ehlert       : rSCAN, r2SCAN, r2SCAN-3c, D4, dhf basis sets  
  Marvin Friede          : D4 for Fr, Ra, Ac-Lr                          
  Lars Goerigk           : TD-DFT with DH, B97 family of functionals     
  Stefan Grimme          : VdW corrections, initial TS optimization, DFT functionals, gCP, sTDA/sTD-DF 
  Waldemar Hujo          : DFT-NL                                        
  H. Jonsson             : NEB                                           
  Holger Kruse           : gCP                                           
  Marcel Mueller         : wB97X-3c, vDZP basis set                      
  Hagen Neugebauer       : wr2SCAN, Native XTB                           
  Gianluca Regni         : ADLD/ADEX                                     
  Tobias Risthaus        : pre 6.0 range-separated hybrid DFT and stability analysis
  Lukas Wittmann         : regularized MP2, r2SCAN double-hybrids, wr2SCAN        
                                                                         
We gratefully acknowledge several colleagues who have allowed us to      
interface, adapt or use parts of their codes:                            
  Ed Valeev, F. Pavosevic, A. Kumar             : LibInt (2-el integral package), F12 methods 
  Garnet Chan, S. Sharma, J. Yang, R. Olivares  : DMRG                   
  Ulf Ekstrom                                   : XCFun DFT Library      
  Mihaly Kallay                                 : mrcc  (arbitrary order and MRCC methods)
  Frank Weinhold                                : gennbo (NPA and NBO analysis)           
  Simon Mueller                                 : openCOSMO-RS                            
  Christopher J. Cramer and Donald G. Truhlar   : smd solvation model                     
  S Lehtola, MJT Oliveira, MAL Marques          : LibXC Library                           
  Liviu Ungur et al                             : ANISO software                          


 Your calculation uses the libint2 library for the computation of 2-el integrals
 For citations please refer to: http://libint.valeyev.net

 Your ORCA version has been built with support for libXC version: 7.0.0
 For citations please refer to: https://libxc.gitlab.io

 This ORCA versions uses:
   CBLAS   interface :  Fast vector & matrix operations
   LAPACKE interface :  Fast linear algebra routines
   SCALAPACK package :  Parallel linear algebra routines
   Shared memory     :  Shared parallel matrices
   BLAS/LAPACK       :  OpenBLAS 0.3.29  USE64BITINT DYNAMIC_ARCH NO_AFFINITY Zen SINGLE_THREADED
        Core in use  :  Zen
   Copyright (c) 2011-2014, The OpenBLAS Project


  ***********************************
  * Starting time: Fri Apr 17 12:14:57 2026
  * Host name:     vmi3233575
  * Process ID:    341075
  * Working dir.:  /root/orca_b12_vps_pack/jobs/01_xtb/mult_3
  ***********************************

NOTE: MaxCore=500 MB was set to SCF,MP2,MDCI,CIPSI,MRCI,RASCI and CIS
      => If you want to overwrite this, your respective input block should be placed after the MaxCore statement


***************************************
The coordinates will be read from file: ../../../starts/zigzag_chain12_d1.50.xyz
***************************************


Your calculation utilizes the semiempirical GFN2-xTB method
Please cite in your paper:
Bannwarth, C.; Ehlert S.; Grimme, S. J. Chem. Theory Comput. 2019, 15, 1652.
   

================================================================================

================================================================================
                                        WARNINGS
                       Please study these warnings very carefully!
================================================================================


WARNING: Geometry Optimization
  ===> : Switching off AutoStart
         For restart on a previous wavefunction, please use MOREAD

WARNING: Found dipole moment calculation with XTB calculation
  ===> : Switching off dipole moment calculation

Environment variable XTBEXE for xtb has been set!

================================================================================
                                       INPUT FILE
================================================================================
NAME = zigzag_chain12_d1.50_m3.inp
|  1> ! GFN2-xTB TightSCF TightOpt
|  2> 
|  3> %pal
|  4>   nprocs 1
|  5> end
|  6> 
|  7> %maxcore 500
|  8> 
|  9> * xyzfile 0 3 ../../../starts/zigzag_chain12_d1.50.xyz
| 10> 
| 11>                          ****END OF INPUT****
================================================================================

                       *****************************
                       * Geometry Optimization Run *
                       *****************************

Geometry optimization settings:
Update method            Update   .... BFGS
Choice of coordinates    CoordSys .... (2022) Redundant Internals
Initial Hessian          InHess   .... Almloef's Model
Max. no of cycles        MaxIter  .... 50

Convergence Tolerances:
Energy Change            TolE     ....  1.0000e-06 Eh
Max. Gradient            TolMAXG  ....  1.0000e-04 Eh/bohr
RMS Gradient             TolRMSG  ....  3.0000e-05 Eh/bohr
Max. Displacement        TolMAXD  ....  1.0000e-03 bohr
RMS Displacement         TolRMSD  ....  6.0000e-04 bohr
Strict Convergence                .... False

------------------------------------------------------------------------------
                        ORCA OPTIMIZATION COORDINATE SETUP
------------------------------------------------------------------------------

The optimization will be done in redundant internal coordinates (2022)
Making redundant internal coordinates   ...  (2022 redundants) done
Evaluating the initial hessian          ...  (Almloef) done
Evaluating the coordinates              ...  done
Calculating the B-matrix                .... done
Calculating the G-matrix                .... done
The number of degrees of freedom        ....   30

    -----------------------------------------------------------------
                    Redundant Internal Coordinates


    -----------------------------------------------------------------
         Definition                    Initial Value    Approx d2E/dq
    -----------------------------------------------------------------
      1. B(B   1,B   0)                  1.7340         0.236852   
      2. B(B   2,B   1)                  1.7340         0.236852   
      3. B(B   3,B   2)                  1.7340         0.236852   
      4. B(B   4,B   3)                  1.7340         0.236852   
      5. B(B   5,B   4)                  1.7340         0.236852   
      6. B(B   6,B   5)                  1.7340         0.236852   
      7. B(B   7,B   6)                  1.7340         0.236852   
      8. B(B   8,B   7)                  1.7340         0.236852   
      9. B(B   9,B   8)                  1.7340         0.236852   
     10. B(B  10,B   9)                  1.7340         0.236852   
     11. B(B  11,B  10)                  1.7340         0.236852   
     12. A(B   0,B   1,B   2)          105.4672         0.321915   
     13. A(B   1,B   2,B   3)          105.4672         0.321915   
     14. A(B   2,B   3,B   4)          105.4672         0.321915   
     15. A(B   3,B   4,B   5)          105.4672         0.321915   
     16. A(B   4,B   5,B   6)          105.4672         0.321915   
     17. A(B   5,B   6,B   7)          105.4672         0.321915   
     18. A(B   6,B   7,B   8)          105.4672         0.321915   
     19. A(B   7,B   8,B   9)          105.4672         0.321915   
     20. A(B   8,B   9,B  10)          105.4672         0.321915   
     21. A(B   9,B  10,B  11)          105.4672         0.321915   
     22. D(B   3,B   2,B   1,B   0)    180.0000         0.010000   
     23. D(B   4,B   3,B   2,B   1)    180.0000         0.010000   
     24. D(B   5,B   4,B   3,B   2)    180.0000         0.010000   
     25. D(B   6,B   5,B   4,B   3)    180.0000         0.010000   
     26. D(B   7,B   6,B   5,B   4)    180.0000         0.010000   
     27. D(B   8,B   7,B   6,B   5)    180.0000         0.010000   
     28. D(B   9,B   8,B   7,B   6)    180.0000         0.010000   
     29. D(B  10,B   9,B   8,B   7)    180.0000         0.010000   
     30. D(B  11,B  10,B   9,B   8)    180.0000         0.010000   
    -----------------------------------------------------------------

Number of atoms                         .... 12
Number of degrees of freedom            .... 30


         *************************************************************
         *                GEOMETRY OPTIMIZATION CYCLE   1            *
         *************************************************************
---------------------------------
CARTESIAN COORDINATES (ANGSTROEM)
---------------------------------
  B    -7.590000    0.525000    0.000000
  B    -6.210000   -0.525000    0.000000
  B    -4.830000    0.525000    0.000000
  B    -3.450000   -0.525000    0.000000
  B    -2.070000    0.525000    0.000000
  B    -0.690000   -0.525000    0.000000
  B     0.690000    0.525000    0.000000
  B     2.070000   -0.525000    0.000000
  B     3.450000    0.525000    0.000000
  B     4.830000   -0.525000    0.000000
  B     6.210000    0.525000    0.000000
  B     7.590000   -0.525000    0.000000

----------------------------
CARTESIAN COORDINATES (A.U.)
----------------------------
  NO LB    ZA    FRAG    MASS        X           Y           Z
   0 B   5.0000    0    10.810  -14.343021    0.992106    0.000000
   1 B   5.0000    0    10.810  -11.735199   -0.992106    0.000000
   2 B   5.0000    0    10.810   -9.127377    0.992106    0.000000
   3 B   5.0000    0    10.810   -6.519555   -0.992106    0.000000
   4 B   5.0000    0    10.810   -3.911733    0.992106    0.000000
   5 B   5.0000    0    10.810   -1.303911   -0.992106    0.000000
   6 B   5.0000    0    10.810    1.303911    0.992106    0.000000
   7 B   5.0000    0    10.810    3.911733   -0.992106    0.000000
   8 B   5.0000    0    10.810    6.519555    0.992106    0.000000
   9 B   5.0000    0    10.810    9.127377   -0.992106    0.000000
  10 B   5.0000    0    10.810   11.735199    0.992106    0.000000
  11 B   5.0000    0    10.810   14.343021   -0.992106    0.000000

      -----------------------------------------------------------      
     |                   =====================                   |     
     |                           x T B                           |     
     |                   =====================                   |     
     |                         S. Grimme                         |     
     |          Mulliken Center for Theoretical Chemistry        |     
     |                    University of Bonn                     |     
      -----------------------------------------------------------      

   * xtb version 6.6.1 (unknown) compiled by 'builduser@buildhost' on 2023-08-07

   xtb is free software: you can redistribute it and/or modify it under
   the terms of the GNU Lesser General Public License as published by
   the Free Software Foundation, either version 3 of the License, or
   (at your option) any later version.
   
   xtb is distributed in the hope that it will be useful,
   but WITHOUT ANY WARRANTY; without even the implied warranty of
   MERCHANTABILITY or FITNESS FOR A PARTICULAR PURPOSE.  See the
   GNU Lesser General Public License for more details.
   
   Cite this work as:
   * C. Bannwarth, E. Caldeweyher, S. Ehlert, A. Hansen, P. Pracht,
     J. Seibert, S. Spicher, S. Grimme, WIREs Comput. Mol. Sci., 2020, 11,
     e01493. DOI: 10.1002/wcms.1493
   
   for GFN2-xTB:
   * C. Bannwarth, S. Ehlert and S. Grimme., J. Chem. Theory Comput., 2019,
     15, 1652-1671. DOI: 10.1021/acs.jctc.8b01176
   for GFN1-xTB:
   * S. Grimme, C. Bannwarth, P. Shushkov, J. Chem. Theory Comput., 2017,
     13, 1989-2009. DOI: 10.1021/acs.jctc.7b00118
   for GFN0-xTB:
   * P. Pracht, E. Caldeweyher, S. Ehlert, S. Grimme, ChemRxiv, 2019, preprint.
     DOI: 10.26434/chemrxiv.8326202.v1
   for GFN-FF:
   * S. Spicher and S. Grimme, Angew. Chem. Int. Ed., 2020, 59, 15665-15673.
     DOI: 10.1002/anie.202004239
   
   for ALPB and GBSA implicit solvation:
   * S. Ehlert, M. Stahn, S. Spicher, S. Grimme, J. Chem. Theory Comput.,
     2021, 17, 4250-4261. DOI: 10.1021/acs.jctc.1c00471
   
   for DFT-D4:
   * E. Caldeweyher, C. Bannwarth and S. Grimme, J. Chem. Phys., 2017,
     147, 034112. DOI: 10.1063/1.4993215
   * E. Caldeweyher, S. Ehlert, A. Hansen, H. Neugebauer, S. Spicher,
     C. Bannwarth and S. Grimme, J. Chem. Phys., 2019, 150, 154122.
     DOI: 10.1063/1.5090222
   * E. Caldeweyher, J.-M. Mewes, S. Ehlert and S. Grimme, Phys. Chem. Chem. Phys.
     2020, 22, 8499-8512. DOI: 10.1039/D0CP00502A
   
   for sTDA-xTB:
   * S. Grimme and C. Bannwarth, J. Chem. Phys., 2016, 145, 054103.
     DOI: 10.1063/1.4959605
   
   in the mass-spec context:
   * V. Asgeirsson, C. Bauer and S. Grimme, Chem. Sci., 2017, 8, 4879.
     DOI: 10.1039/c7sc00601b
   * J. Koopman and S. Grimme, ACS Omega 2019, 4, 12, 15120-15133.
     DOI: 10.1021/acsomega.9b02011
   
   for metadynamics refer to:
   * S. Grimme, J. Chem. Theory Comput., 2019, 155, 2847-2862
     DOI: 10.1021/acs.jctc.9b00143
   
   for SPH calculations refer to:
   * S. Spicher and S. Grimme, J. Chem. Theory Comput., 2021, 17, 1701-1714
     DOI: 10.1021/acs.jctc.0c01306
   
   with help from (in alphabetical order)
   P. Atkinson, C. Bannwarth, F. Bohle, G. Brandenburg, E. Caldeweyher
   M. Checinski, S. Dohm, S. Ehlert, S. Ehrlich, I. Gerasimov, C. Hölzer
   A. Katbashev, J. Koopman, C. Lavigne, S. Lehtola, F. März, M. Müller,
   F. Musil, H. Neugebauer, J. Pisarek, C. Plett, P. Pracht, F. Pultar,
   J. Seibert, P. Shushkov, S. Spicher, M. Stahn, M. Steiner, T. Strunk,
   J. Stückrath, T. Rose, and J. Unsleber
   
 * started run on 2026/04/17 at 12:14:57.959     

           -------------------------------------------------
          |                Calculation Setup                |
           -------------------------------------------------

          program call               : /usr/bin/xtb zigzag_chain12_d1.50_m3_XTB.xyz --grad -c 0 -u 2 -P 1 --namespace zigzag_chain12_d1.50_m3 --input zigzag_chain12_d1.50_m3_XTB.input.tmp --acc 0.200000
          calculation namespace      : zigzag_chain12_d1.50_m3
          coordinate file            : zigzag_chain12_d1.50_m3_XTB.xyz
          omp threads                :                     1

   ID    Z sym.   atoms
    1    5 B      1-12

           -------------------------------------------------
          |                 G F N 2 - x T B                 |
           -------------------------------------------------

        Reference                      10.1021/acs.jctc.8b01176
      * Hamiltonian:
        H0-scaling (s, p, d)           1.850000    2.230000    2.230000
        zeta-weighting                 0.500000
      * Dispersion:
        s8                             2.700000
        a1                             0.520000
        a2                             5.000000
        s9                             5.000000
      * Repulsion:
        kExp                           1.500000    1.000000
        rExp                           1.000000
      * Coulomb:
        alpha                          2.000000
        third order                    shell-resolved
        anisotropic                    true
        a3                             3.000000
        a5                             4.000000
        cn-shift                       1.200000
        cn-exp                         4.000000
        max-rad                        5.000000


          ...................................................
          :                      SETUP                      :
          :.................................................:
          :  # basis functions                  48          :
          :  # atomic orbitals                  48          :
          :  # shells                           24          :
          :  # electrons                        36          :
          :  max. iterations                   250          :
          :  Hamiltonian                  GFN2-xTB          :
          :  restarted?                      false          :
          :  GBSA solvation                  false          :
          :  PC potential                    false          :
          :  electronic temp.          300.0000000     K    :
          :  accuracy                    0.2000000          :
          :  -> integral cutoff          0.3198970E+02      :
          :  -> integral neglect         0.2000000E-08      :
          :  -> SCF convergence          0.2000000E-06 Eh   :
          :  -> wf. convergence          0.2000000E-04 e    :
          :  Broyden damping             0.4000000          :
          ...................................................

 iter      E             dE          RMSdq      gap      omega  full diag
   1    -13.3343903 -0.133344E+02  0.227E+01    0.04       0.0  T
   2     -1.0284144  0.123060E+02  0.184E+01    0.05       1.0  T
   3     30.6452697  0.316737E+02  0.319E+01    0.00       1.0  T
   4     -8.1022878 -0.387476E+02  0.166E+01    0.21       1.0  T
   5     -5.7477869  0.235450E+01  0.188E+01    0.12       1.0  T
   6    -11.7230772 -0.597529E+01  0.100E+01    0.20       1.0  T
   7    -11.6331738  0.899034E-01  0.870E+00    0.05       1.0  T
   8    -13.3362995 -0.170313E+01  0.642E+00    0.06       1.0  T
   9    -13.3330420  0.325756E-02  0.638E+00    0.07       1.0  T
  10    -13.3174000  0.156420E-01  0.629E+00    0.06       1.0  T
  11    -13.2959446  0.214554E-01  0.626E+00    0.06       1.0  T
  12    -13.2851729  0.107717E-01  0.537E+00    0.06       1.0  T
  13    -13.4393645 -0.154192E+00  0.310E+00    0.06       1.0  T
  14    -13.4811549 -0.417904E-01  0.246E+00    0.05       1.0  T
  15    -13.5535294 -0.723745E-01  0.158E+00    0.06       1.0  T
  16    -13.5409355  0.125939E-01  0.141E+00    0.07       1.0  T
  17    -13.5448284 -0.389284E-02  0.134E+00    0.07       1.0  T
  18    -13.5802012 -0.353729E-01  0.744E-01    0.08       1.0  T
  19    -13.5803520 -0.150787E-03  0.676E-01    0.08       1.0  T
  20    -13.5810978 -0.745754E-03  0.536E-01    0.08       1.0  T
  21    -13.5825963 -0.149850E-02  0.411E-01    0.08       1.0  T
  22    -13.5846340 -0.203774E-02  0.360E-01    0.08       1.0  T
  23    -13.5844923  0.141697E-03  0.332E-01    0.08       1.0  T
  24    -13.5843196  0.172731E-03  0.260E-01    0.08       1.0  T
  25    -13.5850449 -0.725297E-03  0.804E-02    0.08       1.0  T
  26    -13.5851693 -0.124472E-03  0.333E-02    0.08       1.0  T
  27    -13.5851730 -0.366099E-05  0.272E-02    0.08       1.1  T
  28    -13.5851748 -0.178362E-05  0.233E-02    0.08       1.2  T
  29    -13.5851762 -0.139736E-05  0.132E-02    0.08       2.2  T
  30    -13.5851760  0.175849E-06  0.987E-03    0.08       2.9  T
  31    -13.5851763 -0.299431E-06  0.738E-03    0.08       3.9  T
  32    -13.5851766 -0.316255E-06  0.344E-03    0.08       8.4  T
  33    -13.5851767 -0.487471E-07  0.215E-03    0.08      13.4  T
  34    -13.5851767 -0.637390E-07  0.121E-03    0.08      23.9  T
  35    -13.5851768 -0.226394E-07  0.557E-04    0.08      51.8  T
  36    -13.5851768 -0.188913E-08  0.110E-04    0.08     263.3  T
  37    -13.5851768 -0.144341E-09  0.473E-05    0.08     610.7  T

   *** convergence criteria satisfied after 37 iterations ***

         #    Occupation            Energy/Eh            Energy/eV
      -------------------------------------------------------------
         1        2.0000           -0.4083703             -11.1123
       ...           ...                  ...                  ...
        13        2.0000           -0.2736144              -7.4454
        14        2.0000           -0.2729112              -7.4263
        15        2.0000           -0.2592293              -7.0540
        16        1.9667           -0.2480141              -6.7488
        17        1.9613           -0.2478648              -6.7447
        18        1.0715           -0.2423829              -6.5956
        19        0.8141           -0.2362779              -6.4294 (HOMO)
        20        0.1864           -0.2334762              -6.3532 (LUMO)
        21        0.0000           -0.2208750              -6.0103
        22        0.0000           -0.2195644              -5.9747
        23                         -0.2120281              -5.7696
        24                         -0.1996093              -5.4316
       ...                                ...                  ...
        48                          0.4749667              12.9245
      -------------------------------------------------------------
                  HL-Gap            0.0028017 Eh            0.0762 eV
             Fermi-level           -0.2398447 Eh           -6.5265 eV

 transition dipole moment (au) for excitation:          18          19
     X       Y       Z   
  -0.0000   0.0000  -0.0632  total (au/Debye):    0.063   0.161
 dE (eV)             :    0.166
 oscillator strength :  0.22960E-04

 SCC (total)                   0 d,  0 h,  0 min,  0.050 sec
 SCC setup                      ...        0 min,  0.000 sec (  0.283%)
 Dispersion                     ...        0 min,  0.000 sec (  0.219%)
 classical contributions        ...        0 min,  0.000 sec (  0.073%)
 integral evaluation            ...        0 min,  0.002 sec (  4.907%)
 iterations                     ...        0 min,  0.038 sec ( 77.132%)
 molecular gradient             ...        0 min,  0.006 sec ( 11.438%)
 printout                       ...        0 min,  0.003 sec (  5.906%)

         :::::::::::::::::::::::::::::::::::::::::::::::::::::
         ::                     SUMMARY                     ::
         :::::::::::::::::::::::::::::::::::::::::::::::::::::
         :: total energy             -13.535168084639 Eh    ::
         :: gradient norm              0.381643456006 Eh/a0 ::
         :: HOMO-LUMO gap              0.076238668725 eV    ::
         ::.................................................::
         :: SCC energy               -13.585176766360 Eh    ::
         :: -> isotropic ES            0.088308293875 Eh    ::
         :: -> anisotropic ES          0.002367927792 Eh    ::
         :: -> anisotropic XC         -0.038028602115 Eh    ::
         :: -> dispersion             -0.010198723872 Eh    ::
         :: repulsion energy           0.050175067891 Eh    ::
         :: add. restraining           0.000000000000 Eh    ::
         :: total charge               0.000000000271 e     ::
         :::::::::::::::::::::::::::::::::::::::::::::::::::::


Property printout bound to 'properties.out'

           -------------------------------------------------
          | TOTAL ENERGY              -13.535168084639 Eh   |
          | GRADIENT NORM               0.381643456006 Eh/α |
          | HOMO-LUMO GAP               0.076238668725 eV   |
           -------------------------------------------------

------------------------------------------------------------------------
 * finished run on 2026/04/17 at 12:14:58.022     
------------------------------------------------------------------------
 total:
 * wall-time:     0 d,  0 h,  0 min,  0.063 sec
 *  cpu-time:     0 d,  0 h,  0 min,  0.063 sec
 * ratio c/w:     0.999 speedup
 SCF:
 * wall-time:     0 d,  0 h,  0 min,  0.050 sec
 *  cpu-time:     0 d,  0 h,  0 min,  0.050 sec
 * ratio c/w:     1.000 speedup


-------------------------   --------------------
FINAL SINGLE POINT ENERGY       -13.535168084640
-------------------------   --------------------


-------------
DIPOLE MOMENT
-------------
                                X             Y             Z
Total Dipole Moment    :      0.00000      -0.00000       0.00000
                        -----------------------------------------
Magnitude (a.u.)       :      0.00000
Magnitude (Debye)      :      0.00000


------------------
CARTESIAN GRADIENT
------------------

   1   B   :   -0.075372908    0.057228738    0.000000000
   2   B   :    0.018414213   -0.114764918   -0.000000000
   3   B   :    0.007888616    0.114340488    0.000000000
   4   B   :   -0.003218226   -0.113438513   -0.000000000
   5   B   :   -0.005020025    0.112143258    0.000000000
   6   B   :   -0.001365347   -0.108359539    0.000000000
   7   B   :    0.001365331    0.108359531    0.000000000
   8   B   :    0.005020030   -0.112143242   -0.000000000
   9   B   :    0.003218227    0.113438499   -0.000000000
  10   B   :   -0.007888613   -0.114340480   -0.000000000
  11   B   :   -0.018414211    0.114764917   -0.000000000
  12   B   :    0.075372913   -0.057228740    0.000000000

Difference to translation invariance:
           :   -0.0000000000   -0.0000000000   -0.0000000000

Difference to rotation invariance:
           :    0.0000000000   -0.0000000000    0.0203324191

Norm of the Cartesian gradient     ...    0.3816434560
RMS gradient                       ...    0.0636072427
MAX gradient                       ...    0.1147649178
------------------------------------------------------------------------------
                         ORCA GEOMETRY RELAXATION STEP
------------------------------------------------------------------------------

Reading the OPT-File                    .... done
Getting information on internals        .... done
Copying old internal coords+grads       .... done
Making the new internal coordinates     .... (2022 redundants) done
Validating the new internal coordinates .... (2022 redundants) done
Calculating the B-matrix                .... done
Calculating the G,G- and P matrices     .... done
Transforming gradient to internals      .... done
Projecting the internal gradient        .... done
Number of atoms                         ....  12
Number of internal coordinates          ....  30
Current Energy                          ....   -13.535168085 Eh
Current gradient norm                   ....     0.381643456 Eh/bohr
Maximum allowed component of the step   ....  0.300
Current trust radius                    ....  0.300
Evaluating the initial hessian          ....  (Almloef) done
Projecting the Hessian                  .... done
Forming the augmented Hessian           .... done
Diagonalizing the augmented Hessian     .... done
Last element of RFO vector              ....  0.836439498
Lowest eigenvalues of augmented Hessian:
 -0.180797043  0.010000000  0.010000000  0.010000000  0.010000000
Length of the computed step             ....  0.655228828
Warning: the length of the step is outside the trust region - taking restricted step instead
The input lambda is                     ....     0.009000
   iter:   5  x=   -0.663696  g=    0.275951 f(x)=     0.023178
   iter:  10  x=   -0.679290  g=    0.195657 f(x)=     0.000000
The output lambda is                    ....    -0.679290 (10 iterations)
The final length of the internal step   ....  0.300000000
Converting the step to Cartesian space:
 Initial RMS(Int)=    0.0547722558
Transforming coordinates:
 Iter   0:  RMS(Cart)=    0.1082813625 RMS(Int)=    2.2949426914
done
Storing new coordinates                 .... done

                                .--------------------.
          ----------------------|Geometry convergence|-------------------------
          Item                value                   Tolerance       Converged
          ---------------------------------------------------------------------
          RMS gradient        0.0504178286            0.0000300000      NO
          MAX gradient        0.0948002700            0.0001000000      NO
          RMS step            0.0547722558            0.0006000000      NO
          MAX step            0.1034776609            0.0010000000      NO
          -------------------------------------------------------------------------
          ........................................................
          Max(Bonds)      0.0548      Max(Angles)    2.01
          Max(Dihed)        0.00      Max(Improp)    0.00
          ---------------------------------------------------------------------

The optimization has not yet converged - more geometry cycles are needed


    ---------------------------------------------------------------------------
                         Redundant Internal Coordinates
                            (Angstroem and degrees)

        Definition                    Value    dE/dq     Step     New-Value
    ----------------------------------------------------------------------------
     1. B(B   1,B   0)                1.7340  0.094800 -0.0548    1.6793   
     2. B(B   2,B   1)                1.7340  0.079843 -0.0461    1.6879   
     3. B(B   3,B   2)                1.7340  0.073872 -0.0427    1.6914   
     4. B(B   4,B   3)                1.7340  0.075384 -0.0435    1.6905   
     5. B(B   5,B   4)                1.7340  0.079774 -0.0461    1.6880   
     6. B(B   6,B   5)                1.7340  0.078109 -0.0451    1.6889   
     7. B(B   7,B   6)                1.7340  0.079774 -0.0461    1.6880   
     8. B(B   8,B   7)                1.7340  0.075384 -0.0435    1.6905   
     9. B(B   9,B   8)                1.7340  0.073872 -0.0427    1.6914   
    10. B(B  10,B   9)                1.7340  0.079843 -0.0461    1.6879   
    11. B(B  11,B  10)                1.7340  0.094800 -0.0548    1.6793   
    12. A(B   0,B   1,B   2)          105.47 -0.000500    0.03    105.50   
    13. A(B   1,B   2,B   3)          105.47 -0.035121    2.01    107.48   
    14. A(B   2,B   3,B   4)          105.47 -0.017586    1.01    106.47   
    15. A(B   3,B   4,B   5)          105.47 -0.024107    1.38    106.85   
    16. A(B   4,B   5,B   6)          105.47 -0.009438    0.54    106.01   
    17. A(B   5,B   6,B   7)          105.47 -0.009437    0.54    106.01   
    18. A(B   6,B   7,B   8)          105.47 -0.024107    1.38    106.85   
    19. A(B   7,B   8,B   9)          105.47 -0.017586    1.01    106.47   
    20. A(B   8,B   9,B  10)          105.47 -0.035121    2.01    107.48   
    21. A(B   9,B  10,B  11)          105.47 -0.000500    0.03    105.50   
    22. D(B   3,B   2,B   1,B   0)    180.00  0.000000   -0.00    180.00   
    23. D(B   4,B   3,B   2,B   1)    180.00 -0.000000   -0.00    180.00   
    24. D(B   5,B   4,B   3,B   2)    180.00  0.000000   -0.00    180.00   
    25. D(B   6,B   5,B   4,B   3)    180.00 -0.000000    0.00    180.00   
    26. D(B   7,B   6,B   5,B   4)    180.00  0.000000    0.00    180.00   
    27. D(B   8,B   7,B   6,B   5)    180.00 -0.000000    0.00    180.00   
    28. D(B   9,B   8,B   7,B   6)    180.00  0.000000   -0.00    180.00   
    29. D(B  10,B   9,B   8,B   7)    180.00 -0.000000   -0.00    180.00   
    30. D(B  11,B  10,B   9,B   8)    180.00  0.000000    0.00    180.00   
    ----------------------------------------------------------------------------

Geometry step timings:
Preparation and reading OPT file:      0.000 s ( 2.577 %)
Internal coordinates            :      0.000 s ( 1.915 %)
B/P matrices and projection     :      0.000 s (21.870 %)
Hessian update/contruction      :      0.000 s (14.433 %)
Making the step                 :      0.000 s (28.424 %)
Converting the step to Cartesian:      0.000 s ( 3.093 %)
Storing new data                :      0.000 s ( 3.019 %)
Checking convergence            :      0.000 s ( 2.504 %)
Final printing                  :      0.000 s (22.091 %)
Total time                      :      0.001 s

Time for energy+gradient        :      0.077 s
Time for complete geometry iter :      0.079 s

         *************************************************************
         *                GEOMETRY OPTIMIZATION CYCLE   2            *
         *************************************************************
---------------------------------
CARTESIAN COORDINATES (ANGSTROEM)
---------------------------------
  B    -7.417199    0.542662    0.000000
  B    -6.106234   -0.506797   -0.000000
  B    -4.737671    0.481190    0.000000
  B    -3.381514   -0.529542    0.000000
  B    -2.028402    0.483806   -0.000000
  B    -0.668437   -0.516051    0.000000
  B     0.668437    0.516051    0.000000
  B     2.028402   -0.483806   -0.000000
  B     3.381514    0.529542   -0.000000
  B     4.737671   -0.481190   -0.000000
  B     6.106234    0.506797    0.000000
  B     7.417199   -0.542662    0.000000

----------------------------
CARTESIAN COORDINATES (A.U.)
----------------------------
  NO LB    ZA    FRAG    MASS        X           Y           Z
   0 B   5.0000    0    10.810  -14.016476    1.025482    0.000000
   1 B   5.0000    0    10.810  -11.539111   -0.957708   -0.000000
   2 B   5.0000    0    10.810   -8.952900    0.909317    0.000000
   3 B   5.0000    0    10.810   -6.390135   -1.000689    0.000000
   4 B   5.0000    0    10.810   -3.833124    0.914261   -0.000000
   5 B   5.0000    0    10.810   -1.263162   -0.975195    0.000000
   6 B   5.0000    0    10.810    1.263162    0.975195    0.000000
   7 B   5.0000    0    10.810    3.833124   -0.914261   -0.000000
   8 B   5.0000    0    10.810    6.390135    1.000689   -0.000000
   9 B   5.0000    0    10.810    8.952900   -0.909317   -0.000000
  10 B   5.0000    0    10.810   11.539111    0.957708    0.000000
  11 B   5.0000    0    10.810   14.016475   -1.025482    0.000000

      -----------------------------------------------------------      
     |                   =====================                   |     
     |                           x T B                           |     
     |                   =====================                   |     
     |                         S. Grimme                         |     
     |          Mulliken Center for Theoretical Chemistry        |     
     |                    University of Bonn                     |     
      -----------------------------------------------------------      

   * xtb version 6.6.1 (unknown) compiled by 'builduser@buildhost' on 2023-08-07

   xtb is free software: you can redistribute it and/or modify it under
   the terms of the GNU Lesser General Public License as published by
   the Free Software Foundation, either version 3 of the License, or
   (at your option) any later version.
   
   xtb is distributed in the hope that it will be useful,
   but WITHOUT ANY WARRANTY; without even the implied warranty of
   MERCHANTABILITY or FITNESS FOR A PARTICULAR PURPOSE.  See the
   GNU Lesser General Public License for more details.
   
   Cite this work as:
   * C. Bannwarth, E. Caldeweyher, S. Ehlert, A. Hansen, P. Pracht,
     J. Seibert, S. Spicher, S. Grimme, WIREs Comput. Mol. Sci., 2020, 11,
     e01493. DOI: 10.1002/wcms.1493
   
   for GFN2-xTB:
   * C. Bannwarth, S. Ehlert and S. Grimme., J. Chem. Theory Comput., 2019,
     15, 1652-1671. DOI: 10.1021/acs.jctc.8b01176
   for GFN1-xTB:
   * S. Grimme, C. Bannwarth, P. Shushkov, J. Chem. Theory Comput., 2017,
     13, 1989-2009. DOI: 10.1021/acs.jctc.7b00118
   for GFN0-xTB:
   * P. Pracht, E. Caldeweyher, S. Ehlert, S. Grimme, ChemRxiv, 2019, preprint.
     DOI: 10.26434/chemrxiv.8326202.v1
   for GFN-FF:
   * S. Spicher and S. Grimme, Angew. Chem. Int. Ed., 2020, 59, 15665-15673.
     DOI: 10.1002/anie.202004239
   
   for ALPB and GBSA implicit solvation:
   * S. Ehlert, M. Stahn, S. Spicher, S. Grimme, J. Chem. Theory Comput.,
     2021, 17, 4250-4261. DOI: 10.1021/acs.jctc.1c00471
   
   for DFT-D4:
   * E. Caldeweyher, C. Bannwarth and S. Grimme, J. Chem. Phys., 2017,
     147, 034112. DOI: 10.1063/1.4993215
   * E. Caldeweyher, S. Ehlert, A. Hansen, H. Neugebauer, S. Spicher,
     C. Bannwarth and S. Grimme, J. Chem. Phys., 2019, 150, 154122.
     DOI: 10.1063/1.5090222
   * E. Caldeweyher, J.-M. Mewes, S. Ehlert and S. Grimme, Phys. Chem. Chem. Phys.
     2020, 22, 8499-8512. DOI: 10.1039/D0CP00502A
   
   for sTDA-xTB:
   * S. Grimme and C. Bannwarth, J. Chem. Phys., 2016, 145, 054103.
     DOI: 10.1063/1.4959605
   
   in the mass-spec context:
   * V. Asgeirsson, C. Bauer and S. Grimme, Chem. Sci., 2017, 8, 4879.
     DOI: 10.1039/c7sc00601b
   * J. Koopman and S. Grimme, ACS Omega 2019, 4, 12, 15120-15133.
     DOI: 10.1021/acsomega.9b02011
   
   for metadynamics refer to:
   * S. Grimme, J. Chem. Theory Comput., 2019, 155, 2847-2862
     DOI: 10.1021/acs.jctc.9b00143
   
   for SPH calculations refer to:
   * S. Spicher and S. Grimme, J. Chem. Theory Comput., 2021, 17, 1701-1714
     DOI: 10.1021/acs.jctc.0c01306
   
   with help from (in alphabetical order)
   P. Atkinson, C. Bannwarth, F. Bohle, G. Brandenburg, E. Caldeweyher
   M. Checinski, S. Dohm, S. Ehlert, S. Ehrlich, I. Gerasimov, C. Hölzer
   A. Katbashev, J. Koopman, C. Lavigne, S. Lehtola, F. März, M. Müller,
   F. Musil, H. Neugebauer, J. Pisarek, C. Plett, P. Pracht, F. Pultar,
   J. Seibert, P. Shushkov, S. Spicher, M. Stahn, M. Steiner, T. Strunk,
   J. Stückrath, T. Rose, and J. Unsleber
   
 * started run on 2026/04/17 at 12:14:58.035     

           -------------------------------------------------
          |                Calculation Setup                |
           -------------------------------------------------

          program call               : /usr/bin/xtb zigzag_chain12_d1.50_m3_XTB.xyz --grad -c 0 -u 2 -P 1 --namespace zigzag_chain12_d1.50_m3 --input zigzag_chain12_d1.50_m3_XTB.input.tmp --acc 0.200000
          calculation namespace      : zigzag_chain12_d1.50_m3
          coordinate file            : zigzag_chain12_d1.50_m3_XTB.xyz
          omp threads                :                     1

   ID    Z sym.   atoms
    1    5 B      1-12

           -------------------------------------------------
          |                 G F N 2 - x T B                 |
           -------------------------------------------------

        Reference                      10.1021/acs.jctc.8b01176
      * Hamiltonian:
        H0-scaling (s, p, d)           1.850000    2.230000    2.230000
        zeta-weighting                 0.500000
      * Dispersion:
        s8                             2.700000
        a1                             0.520000
        a2                             5.000000
        s9                             5.000000
      * Repulsion:
        kExp                           1.500000    1.000000
        rExp                           1.000000
      * Coulomb:
        alpha                          2.000000
        third order                    shell-resolved
        anisotropic                    true
        a3                             3.000000
        a5                             4.000000
        cn-shift                       1.200000
        cn-exp                         4.000000
        max-rad                        5.000000

q/qsh data taken from xtbrestart
CAMM data taken from xtbrestart

          ...................................................
          :                      SETUP                      :
          :.................................................:
          :  # basis functions                  48          :
          :  # atomic orbitals                  48          :
          :  # shells                           24          :
          :  # electrons                        36          :
          :  max. iterations                   250          :
          :  Hamiltonian                  GFN2-xTB          :
          :  restarted?                       true          :
          :  GBSA solvation                  false          :
          :  PC potential                    false          :
          :  electronic temp.          300.0000000     K    :
          :  accuracy                    0.2000000          :
          :  -> integral cutoff          0.3198970E+02      :
          :  -> integral neglect         0.2000000E-08      :
          :  -> SCF convergence          0.2000000E-06 Eh   :
          :  -> wf. convergence          0.2000000E-04 e    :
          :  Broyden damping             0.4000000          :
          ...................................................

 iter      E             dE          RMSdq      gap      omega  full diag
   1    -13.6840996 -0.136841E+02  0.113E+00    0.11       0.0  T
   2    -13.4546566  0.229443E+00  0.297E+00    0.08       1.0  T
   3    -13.6153509 -0.160694E+00  0.173E+00    0.10       1.0  T
   4    -13.5872256  0.281253E-01  0.270E+00    0.10       1.0  T
   5    -13.6807994 -0.935738E-01  0.452E-01    0.11       1.0  T
   6    -13.6499723  0.308272E-01  0.113E+00    0.14       1.0  T
   7    -13.6616091 -0.116368E-01  0.994E-01    0.10       1.0  T
   8    -13.6181871  0.434220E-01  0.155E+00    0.11       1.0  T
   9    -13.6680006 -0.498135E-01  0.855E-01    0.12       1.0  T
  10    -13.6820122 -0.140116E-01  0.424E-01    0.11       1.0  T
  11    -13.6844509 -0.243871E-02  0.296E-01    0.12       1.0  T
  12    -13.6852069 -0.756038E-03  0.225E-01    0.12       1.0  T
  13    -13.6855809 -0.373969E-03  0.192E-01    0.12       1.0  T
  14    -13.6859064 -0.325517E-03  0.128E-01    0.11       1.0  T
  15    -13.6859487 -0.423201E-04  0.113E-01    0.11       1.0  T
  16    -13.6860176 -0.688602E-04  0.773E-02    0.11       1.0  T
  17    -13.6860253 -0.766059E-05  0.693E-02    0.11       1.0  T
  18    -13.6860818 -0.565410E-04  0.428E-02    0.11       1.0  T
  19    -13.6861016 -0.197849E-04  0.288E-02    0.11       1.0  T
  20    -13.6861147 -0.131214E-04  0.128E-02    0.11       2.3  T
  21    -13.6861160 -0.133217E-05  0.915E-03    0.11       3.2  T
  22    -13.6861172 -0.119991E-05  0.201E-03    0.11      14.3  T
  23    -13.6861173 -0.360071E-07  0.462E-04    0.11      62.5  T
  24    -13.6861173 -0.701904E-09  0.309E-04    0.11      93.5  T
  25    -13.6861173 -0.214197E-08  0.162E-04    0.11     177.8  T
  26    -13.6861173 -0.449202E-09  0.392E-05    0.11     737.3  T

   *** convergence criteria satisfied after 26 iterations ***

         #    Occupation            Energy/Eh            Energy/eV
      -------------------------------------------------------------
         1        2.0000           -0.4105104             -11.1706
       ...           ...                  ...                  ...
        13        2.0000           -0.2750031              -7.4832
        14        2.0000           -0.2738462              -7.4517
        15        2.0000           -0.2610121              -7.1025
        16        1.8316           -0.2453131              -6.6753
        17        1.8166           -0.2452147              -6.6726
        18        1.3518           -0.2432155              -6.6182
        19        0.8997           -0.2330071              -6.3404 (HOMO)
        20        0.1003           -0.2288383              -6.2270 (LUMO)
        21        0.0000           -0.2202123              -5.9923
        22                         -0.2150783              -5.8526
        23                         -0.2072955              -5.6408
        24                         -0.1939961              -5.2789
       ...                                ...                  ...
        48                          0.5767042              15.6929
      -------------------------------------------------------------
                  HL-Gap            0.0041689 Eh            0.1134 eV
             Fermi-level           -0.2373594 Eh           -6.4589 eV

 transition dipole moment (au) for excitation:          18          19
     X       Y       Z   
   0.0000  -0.0000  -0.0594  total (au/Debye):    0.059   0.151
 dE (eV)             :    0.278
 oscillator strength :  0.33940E-04

 SCC (total)                   0 d,  0 h,  0 min,  0.032 sec
 SCC setup                      ...        0 min,  0.000 sec (  0.466%)
 Dispersion                     ...        0 min,  0.000 sec (  0.297%)
 classical contributions        ...        0 min,  0.000 sec (  0.104%)
 integral evaluation            ...        0 min,  0.002 sec (  5.130%)
 iterations                     ...        0 min,  0.023 sec ( 71.408%)
 molecular gradient             ...        0 min,  0.005 sec ( 13.986%)
 printout                       ...        0 min,  0.003 sec (  8.522%)

         :::::::::::::::::::::::::::::::::::::::::::::::::::::
         ::                     SUMMARY                     ::
         :::::::::::::::::::::::::::::::::::::::::::::::::::::
         :: total energy             -13.614856152266 Eh    ::
         :: gradient norm              0.357365265308 Eh/a0 ::
         :: HOMO-LUMO gap              0.113440302308 eV    ::
         ::.................................................::
         :: SCC energy               -13.686117284855 Eh    ::
         :: -> isotropic ES            0.093633296108 Eh    ::
         :: -> anisotropic ES          0.002562838100 Eh    ::
         :: -> anisotropic XC         -0.036705774458 Eh    ::
         :: -> dispersion             -0.010397711287 Eh    ::
         :: repulsion energy           0.071433190160 Eh    ::
         :: add. restraining           0.000000000000 Eh    ::
         :: total charge               0.000000000082 e     ::
         :::::::::::::::::::::::::::::::::::::::::::::::::::::


Property printout bound to 'properties.out'

           -------------------------------------------------
          | TOTAL ENERGY              -13.614856152266 Eh   |
          | GRADIENT NORM               0.357365265308 Eh/α |
          | HOMO-LUMO GAP               0.113440302308 eV   |
           -------------------------------------------------

------------------------------------------------------------------------
 * finished run on 2026/04/17 at 12:14:58.079     
------------------------------------------------------------------------
 total:
 * wall-time:     0 d,  0 h,  0 min,  0.043 sec
 *  cpu-time:     0 d,  0 h,  0 min,  0.043 sec
 * ratio c/w:     0.995 speedup
 SCF:
 * wall-time:     0 d,  0 h,  0 min,  0.032 sec
 *  cpu-time:     0 d,  0 h,  0 min,  0.032 sec
 * ratio c/w:     0.997 speedup


-------------------------   --------------------
FINAL SINGLE POINT ENERGY       -13.614856152270
-------------------------   --------------------


-------------
DIPOLE MOMENT
-------------
                                X             Y             Z
Total Dipole Moment    :     -0.00000       0.00000      -0.00000
                        -----------------------------------------
Magnitude (a.u.)       :      0.00000
Magnitude (Debye)      :      0.00000


------------------
CARTESIAN GRADIENT
------------------

   1   B   :   -0.072628915    0.060414412    0.000000000
   2   B   :    0.020216604   -0.110774571   -0.000000000
   3   B   :    0.009786434    0.102528046   -0.000000000
   4   B   :   -0.004522807   -0.106179438    0.000000000
   5   B   :   -0.006309380    0.104397585   -0.000000000
   6   B   :   -0.000578157   -0.097000489    0.000000000
   7   B   :    0.000578101    0.097000460    0.000000000
   8   B   :    0.006309427   -0.104397537   -0.000000000
   9   B   :    0.004522826    0.106179426    0.000000000
  10   B   :   -0.009786445   -0.102528052    0.000000000
  11   B   :   -0.020216609    0.110774571   -0.000000000
  12   B   :    0.072628923   -0.060414414    0.000000000

Difference to translation invariance:
           :    0.0000000000    0.0000000000   -0.0000000000

Difference to rotation invariance:
           :   -0.0000000000    0.0000000000    0.0000000084

Norm of the Cartesian gradient     ...    0.3573652653
RMS gradient                       ...    0.0595608776
MAX gradient                       ...    0.1107745712
------------------------------------------------------------------------------
                         ORCA GEOMETRY RELAXATION STEP
------------------------------------------------------------------------------

Reading the OPT-File                    .... done
Getting information on internals        .... done
Copying old internal coords+grads       .... done
Making the new internal coordinates     .... (2022 redundants) done
Validating the new internal coordinates .... (2022 redundants) done
Calculating the B-matrix                .... done
Calculating the G,G- and P matrices     .... done
Transforming gradient to internals      .... done
Projecting the internal gradient        .... done
Number of atoms                         ....  12
Number of internal coordinates          ....  30
Current Energy                          ....   -13.614856152 Eh
Current gradient norm                   ....     0.357365265 Eh/bohr
Maximum allowed component of the step   ....  0.300
Current trust radius                    ....  0.300
Updating the Hessian (BFGS)             .... done
Forming the augmented Hessian           .... done
Diagonalizing the augmented Hessian     .... done
Last element of RFO vector              ....  0.741987748
Lowest eigenvalues of augmented Hessian:
 -0.231752319  0.010000000  0.010000000  0.010000000  0.010000000
Length of the computed step             ....  0.903537077
Warning: the length of the step is outside the trust region - taking restricted step instead
The input lambda is                     ....     0.009000
   iter:   5  x=   -0.255011  g=   14.465765 f(x)=     1.415967
   iter:  10  x=   -0.802139  g=    0.223505 f(x)=     0.003720
The output lambda is                    ....    -0.802652 (14 iterations)
The final length of the internal step   ....  0.300000000
Converting the step to Cartesian space:
 Initial RMS(Int)=    0.0547722558
Transforming coordinates:
 Iter   0:  RMS(Cart)=    0.0981205378 RMS(Int)=    1.6232345400
done
Storing new coordinates                 .... done
The predicted energy change is          ....    -0.074673076
Previously predicted energy change      ....    -0.071982285
Actually observed energy change         ....    -0.079688068
Ratio of predicted to observed change   ....     1.107051103
New trust radius                        ....     0.450000000

                                .--------------------.
          ----------------------|Geometry convergence|-------------------------
          Item                value                   Tolerance       Converged
          ---------------------------------------------------------------------
          Energy change      -0.0796880676            0.0000010000      NO
          RMS gradient        0.0469602820            0.0000300000      NO
          MAX gradient        0.0944548170            0.0001000000      NO
          RMS step            0.0547722558            0.0006000000      NO
          MAX step            0.1139975204            0.0010000000      NO
          -------------------------------------------------------------------------
          ........................................................
          Max(Bonds)      0.0603      Max(Angles)    1.94
          Max(Dihed)        0.00      Max(Improp)    0.00
          ---------------------------------------------------------------------

The optimization has not yet converged - more geometry cycles are needed


    ---------------------------------------------------------------------------
                         Redundant Internal Coordinates
                            (Angstroem and degrees)

        Definition                    Value    dE/dq     Step     New-Value
    ----------------------------------------------------------------------------
     1. B(B   1,B   0)                1.6793  0.094455 -0.0603    1.6190   
     2. B(B   2,B   1)                1.6879  0.071973 -0.0436    1.6443   
     3. B(B   3,B   2)                1.6914  0.065352 -0.0391    1.6522   
     4. B(B   4,B   3)                1.6905  0.070115 -0.0432    1.6473   
     5. B(B   5,B   4)                1.6880  0.072916 -0.0445    1.6435   
     6. B(B   6,B   5)                1.6889  0.071259 -0.0434    1.6455   
     7. B(B   7,B   6)                1.6880  0.072916 -0.0445    1.6435   
     8. B(B   8,B   7)                1.6905  0.070115 -0.0432    1.6473   
     9. B(B   9,B   8)                1.6914  0.065352 -0.0391    1.6522   
    10. B(B  10,B   9)                1.6879  0.071973 -0.0436    1.6443   
    11. B(B  11,B  10)                1.6793  0.094455 -0.0603    1.6190   
    12. A(B   0,B   1,B   2)          105.50 -0.005632    0.52    106.02   
    13. A(B   1,B   2,B   3)          107.48 -0.026755    1.56    109.04   
    14. A(B   2,B   3,B   4)          106.47 -0.025523    1.94    108.41   
    15. A(B   3,B   4,B   5)          106.85 -0.022298    1.45    108.29   
    16. A(B   4,B   5,B   6)          106.01 -0.006186    0.32    106.33   
    17. A(B   5,B   6,B   7)          106.01 -0.006186    0.32    106.33   
    18. A(B   6,B   7,B   8)          106.85 -0.022298    1.45    108.29   
    19. A(B   7,B   8,B   9)          106.47 -0.025523    1.94    108.41   
    20. A(B   8,B   9,B  10)          107.48 -0.026755    1.56    109.04   
    21. A(B   9,B  10,B  11)          105.50 -0.005632    0.52    106.02   
    22. D(B   3,B   2,B   1,B   0)    180.00  0.000000    0.00    180.00   
    23. D(B   4,B   3,B   2,B   1)    180.00  0.000000    0.00    180.00   
    24. D(B   5,B   4,B   3,B   2)    180.00  0.000000    0.00    180.00   
    25. D(B   6,B   5,B   4,B   3)   -180.00  0.000000   -0.00   -180.00   
    26. D(B   7,B   6,B   5,B   4)   -180.00  0.000000   -0.00   -180.00   
    27. D(B   8,B   7,B   6,B   5)   -180.00  0.000000   -0.00   -180.00   
    28. D(B   9,B   8,B   7,B   6)    180.00  0.000000    0.00    180.00   
    29. D(B  10,B   9,B   8,B   7)    180.00  0.000000    0.00    180.00   
    30. D(B  11,B  10,B   9,B   8)   -180.00  0.000000   -0.00   -180.00   
    ----------------------------------------------------------------------------

Geometry step timings:
Preparation and reading OPT file:      0.000 s ( 1.752 %)
Internal coordinates            :      0.000 s ( 1.390 %)
B/P matrices and projection     :      0.000 s (20.725 %)
Hessian update/contruction      :      0.000 s (23.202 %)
Making the step                 :      0.000 s (23.686 %)
Converting the step to Cartesian:      0.000 s ( 2.296 %)
Storing new data                :      0.000 s ( 2.900 %)
Checking convergence            :      0.000 s ( 3.082 %)
Final printing                  :      0.000 s (20.846 %)
Total time                      :      0.002 s

Time for energy+gradient        :      0.053 s
Time for complete geometry iter :      0.056 s

         *************************************************************
         *                GEOMETRY OPTIMIZATION CYCLE   3            *
         *************************************************************
---------------------------------
CARTESIAN COORDINATES (ANGSTROEM)
---------------------------------
  B    -7.263834    0.527230    0.000000
  B    -6.001870   -0.486907   -0.000000
  B    -4.658117    0.460825    0.000000
  B    -3.317472   -0.504857    0.000000
  B    -1.981768    0.459230   -0.000000
  B    -0.650231   -0.504086    0.000000
  B     0.650231    0.504087   -0.000000
  B     1.981767   -0.459230   -0.000000
  B     3.317472    0.504857   -0.000000
  B     4.658117   -0.460825    0.000000
  B     6.001870    0.486907   -0.000000
  B     7.263834   -0.527230    0.000000

----------------------------
CARTESIAN COORDINATES (A.U.)
----------------------------
  NO LB    ZA    FRAG    MASS        X           Y           Z
   0 B   5.0000    0    10.810  -13.726657    0.996320    0.000000
   1 B   5.0000    0    10.810  -11.341891   -0.920121   -0.000000
   2 B   5.0000    0    10.810   -8.802566    0.870832    0.000000
   3 B   5.0000    0    10.810   -6.269113   -0.954042    0.000000
   4 B   5.0000    0    10.810   -3.744998    0.867818   -0.000000
   5 B   5.0000    0    10.810   -1.228758   -0.952585    0.000000
   6 B   5.0000    0    10.810    1.228758    0.952585   -0.000000
   7 B   5.0000    0    10.810    3.744998   -0.867818   -0.000000
   8 B   5.0000    0    10.810    6.269113    0.954042   -0.000000
   9 B   5.0000    0    10.810    8.802566   -0.870832    0.000000
  10 B   5.0000    0    10.810   11.341891    0.920121   -0.000000
  11 B   5.0000    0    10.810   13.726657   -0.996321    0.000000

      -----------------------------------------------------------      
     |                   =====================                   |     
     |                           x T B                           |     
     |                   =====================                   |     
     |                         S. Grimme                         |     
     |          Mulliken Center for Theoretical Chemistry        |     
     |                    University of Bonn                     |     
      -----------------------------------------------------------      

   * xtb version 6.6.1 (unknown) compiled by 'builduser@buildhost' on 2023-08-07

   xtb is free software: you can redistribute it and/or modify it under
   the terms of the GNU Lesser General Public License as published by
   the Free Software Foundation, either version 3 of the License, or
   (at your option) any later version.
   
   xtb is distributed in the hope that it will be useful,
   but WITHOUT ANY WARRANTY; without even the implied warranty of
   MERCHANTABILITY or FITNESS FOR A PARTICULAR PURPOSE.  See the
   GNU Lesser General Public License for more details.
   
   Cite this work as:
   * C. Bannwarth, E. Caldeweyher, S. Ehlert, A. Hansen, P. Pracht,
     J. Seibert, S. Spicher, S. Grimme, WIREs Comput. Mol. Sci., 2020, 11,
     e01493. DOI: 10.1002/wcms.1493
   
   for GFN2-xTB:
   * C. Bannwarth, S. Ehlert and S. Grimme., J. Chem. Theory Comput., 2019,
     15, 1652-1671. DOI: 10.1021/acs.jctc.8b01176
   for GFN1-xTB:
   * S. Grimme, C. Bannwarth, P. Shushkov, J. Chem. Theory Comput., 2017,
     13, 1989-2009. DOI: 10.1021/acs.jctc.7b00118
   for GFN0-xTB:
   * P. Pracht, E. Caldeweyher, S. Ehlert, S. Grimme, ChemRxiv, 2019, preprint.
     DOI: 10.26434/chemrxiv.8326202.v1
   for GFN-FF:
   * S. Spicher and S. Grimme, Angew. Chem. Int. Ed., 2020, 59, 15665-15673.
     DOI: 10.1002/anie.202004239
   
   for ALPB and GBSA implicit solvation:
   * S. Ehlert, M. Stahn, S. Spicher, S. Grimme, J. Chem. Theory Comput.,
     2021, 17, 4250-4261. DOI: 10.1021/acs.jctc.1c00471
   
   for DFT-D4:
   * E. Caldeweyher, C. Bannwarth and S. Grimme, J. Chem. Phys., 2017,
     147, 034112. DOI: 10.1063/1.4993215
   * E. Caldeweyher, S. Ehlert, A. Hansen, H. Neugebauer, S. Spicher,
     C. Bannwarth and S. Grimme, J. Chem. Phys., 2019, 150, 154122.
     DOI: 10.1063/1.5090222
   * E. Caldeweyher, J.-M. Mewes, S. Ehlert and S. Grimme, Phys. Chem. Chem. Phys.
     2020, 22, 8499-8512. DOI: 10.1039/D0CP00502A
   
   for sTDA-xTB:
   * S. Grimme and C. Bannwarth, J. Chem. Phys., 2016, 145, 054103.
     DOI: 10.1063/1.4959605
   
   in the mass-spec context:
   * V. Asgeirsson, C. Bauer and S. Grimme, Chem. Sci., 2017, 8, 4879.
     DOI: 10.1039/c7sc00601b
   * J. Koopman and S. Grimme, ACS Omega 2019, 4, 12, 15120-15133.
     DOI: 10.1021/acsomega.9b02011
   
   for metadynamics refer to:
   * S. Grimme, J. Chem. Theory Comput., 2019, 155, 2847-2862
     DOI: 10.1021/acs.jctc.9b00143
   
   for SPH calculations refer to:
   * S. Spicher and S. Grimme, J. Chem. Theory Comput., 2021, 17, 1701-1714
     DOI: 10.1021/acs.jctc.0c01306
   
   with help from (in alphabetical order)
   P. Atkinson, C. Bannwarth, F. Bohle, G. Brandenburg, E. Caldeweyher
   M. Checinski, S. Dohm, S. Ehlert, S. Ehrlich, I. Gerasimov, C. Hölzer
   A. Katbashev, J. Koopman, C. Lavigne, S. Lehtola, F. März, M. Müller,
   F. Musil, H. Neugebauer, J. Pisarek, C. Plett, P. Pracht, F. Pultar,
   J. Seibert, P. Shushkov, S. Spicher, M. Stahn, M. Steiner, T. Strunk,
   J. Stückrath, T. Rose, and J. Unsleber
   
 * started run on 2026/04/17 at 12:14:58.092     

           -------------------------------------------------
          |                Calculation Setup                |
           -------------------------------------------------

          program call               : /usr/bin/xtb zigzag_chain12_d1.50_m3_XTB.xyz --grad -c 0 -u 2 -P 1 --namespace zigzag_chain12_d1.50_m3 --input zigzag_chain12_d1.50_m3_XTB.input.tmp --acc 0.200000
          calculation namespace      : zigzag_chain12_d1.50_m3
          coordinate file            : zigzag_chain12_d1.50_m3_XTB.xyz
          omp threads                :                     1

   ID    Z sym.   atoms
    1    5 B      1-12

           -------------------------------------------------
          |                 G F N 2 - x T B                 |
           -------------------------------------------------

        Reference                      10.1021/acs.jctc.8b01176
      * Hamiltonian:
        H0-scaling (s, p, d)           1.850000    2.230000    2.230000
        zeta-weighting                 0.500000
      * Dispersion:
        s8                             2.700000
        a1                             0.520000
        a2                             5.000000
        s9                             5.000000
      * Repulsion:
        kExp                           1.500000    1.000000
        rExp                           1.000000
      * Coulomb:
        alpha                          2.000000
        third order                    shell-resolved
        anisotropic                    true
        a3                             3.000000
        a5                             4.000000
        cn-shift                       1.200000
        cn-exp                         4.000000
        max-rad                        5.000000

q/qsh data taken from xtbrestart
CAMM data taken from xtbrestart

          ...................................................
          :                      SETUP                      :
          :.................................................:
          :  # basis functions                  48          :
          :  # atomic orbitals                  48          :
          :  # shells                           24          :
          :  # electrons                        36          :
          :  max. iterations                   250          :
          :  Hamiltonian                  GFN2-xTB          :
          :  restarted?                       true          :
          :  GBSA solvation                  false          :
          :  PC potential                    false          :
          :  electronic temp.          300.0000000     K    :
          :  accuracy                    0.2000000          :
          :  -> integral cutoff          0.3198970E+02      :
          :  -> integral neglect         0.2000000E-08      :
          :  -> SCF convergence          0.2000000E-06 Eh   :
          :  -> wf. convergence          0.2000000E-04 e    :
          :  Broyden damping             0.4000000          :
          ...................................................

 iter      E             dE          RMSdq      gap      omega  full diag
   1    -13.7874851 -0.137875E+02  0.168E+00    0.17       0.0  T
   2    -13.7575836  0.299015E-01  0.122E+00    0.21       1.0  T
   3    -13.3718526  0.385731E+00  0.440E+00    0.14       1.0  T
   4    -13.6377453 -0.265893E+00  0.211E+00    0.11       1.0  T
   5    -13.7222500 -0.845047E-01  0.178E+00    0.16       1.0  T
   6    -13.7447393 -0.224893E-01  0.143E+00    0.19       1.0  T
   7    -13.6460481  0.986913E-01  0.219E+00    0.18       1.0  T
   8    -13.7714750 -0.125427E+00  0.925E-01    0.17       1.0  T
   9    -13.7802066 -0.873159E-02  0.669E-01    0.19       1.0  T
  10    -13.7832988 -0.309225E-02  0.532E-01    0.18       1.0  T
  11    -13.7856897 -0.239081E-02  0.441E-01    0.18       1.0  T
  12    -13.7876439 -0.195424E-02  0.297E-01    0.19       1.0  T
  13    -13.7872080  0.435936E-03  0.313E-01    0.18       1.0  T
  14    -13.7864988  0.709180E-03  0.342E-01    0.18       1.0  T
  15    -13.7886796 -0.218082E-02  0.194E-01    0.19       1.0  T
  16    -13.7893726 -0.693000E-03  0.129E-01    0.18       1.0  T
  17    -13.7893262  0.463912E-04  0.129E-01    0.18       1.0  T
  18    -13.7893444 -0.182291E-04  0.125E-01    0.18       1.0  T
  19    -13.7895655 -0.221029E-03  0.747E-02    0.18       1.0  T
  20    -13.7896766 -0.111169E-03  0.106E-02    0.18       2.7  T
  21    -13.7896769 -0.280028E-06  0.124E-02    0.18       2.3  T
  22    -13.7896771 -0.140871E-06  0.103E-02    0.18       2.8  T
  23    -13.7896791 -0.207146E-05  0.144E-03    0.18      20.0  T
  24    -13.7896791 -0.102247E-07  0.718E-04    0.18      40.2  T
  25    -13.7896792 -0.761322E-08  0.157E-04    0.18     183.4  T
  26    -13.7896792 -0.306095E-09  0.708E-05    0.18     407.7  T

   *** convergence criteria satisfied after 26 iterations ***

         #    Occupation            Energy/Eh            Energy/eV
      -------------------------------------------------------------
         1        2.0000           -0.4119637             -11.2101
       ...           ...                  ...                  ...
        13        2.0000           -0.2757957              -7.5048
        14        2.0000           -0.2737563              -7.4493
        15        2.0000           -0.2624679              -7.1421
        16        1.8474           -0.2436798              -6.6309
        17        1.5797           -0.2423564              -6.5949
        18        1.5729           -0.2423299              -6.5941
        19        0.9722           -0.2294502              -6.2437 (HOMO)
        20        0.0270           -0.2226665              -6.0591 (LUMO)
        21        0.0008           -0.2192505              -5.9661
        22                         -0.2106576              -5.7323
        23                         -0.2014043              -5.4805
        24                         -0.1880491              -5.1171
       ...                                ...                  ...
        48                          0.6988494              19.0167
      -------------------------------------------------------------
                  HL-Gap            0.0067837 Eh            0.1846 eV
             Fermi-level           -0.2340614 Eh           -6.3691 eV

 transition dipole moment (au) for excitation:          18          19
     X       Y       Z   
   5.1180  -0.4361   0.0000  total (au/Debye):    5.137  13.056
 dE (eV)             :    0.350
 oscillator strength :  0.32038E+00

 SCC (total)                   0 d,  0 h,  0 min,  0.033 sec
 SCC setup                      ...        0 min,  0.000 sec (  0.415%)
 Dispersion                     ...        0 min,  0.000 sec (  0.296%)
 classical contributions        ...        0 min,  0.000 sec (  0.168%)
 integral evaluation            ...        0 min,  0.002 sec (  6.482%)
 iterations                     ...        0 min,  0.024 sec ( 72.329%)
 molecular gradient             ...        0 min,  0.004 sec ( 12.609%)
 printout                       ...        0 min,  0.003 sec (  7.616%)

         :::::::::::::::::::::::::::::::::::::::::::::::::::::
         ::                     SUMMARY                     ::
         :::::::::::::::::::::::::::::::::::::::::::::::::::::
         :: total energy             -13.688728606057 Eh    ::
         :: gradient norm              0.324150181452 Eh/a0 ::
         :: HOMO-LUMO gap              0.184594130335 eV    ::
         ::.................................................::
         :: SCC energy               -13.789679152980 Eh    ::
         :: -> isotropic ES            0.101455744274 Eh    ::
         :: -> anisotropic ES          0.003031499354 Eh    ::
         :: -> anisotropic XC         -0.036172861941 Eh    ::
         :: -> dispersion             -0.010596140362 Eh    ::
         :: repulsion energy           0.101128732124 Eh    ::
         :: add. restraining           0.000000000000 Eh    ::
         :: total charge               0.000000000008 e     ::
         :::::::::::::::::::::::::::::::::::::::::::::::::::::


Property printout bound to 'properties.out'

           -------------------------------------------------
          | TOTAL ENERGY              -13.688728606057 Eh   |
          | GRADIENT NORM               0.324150181452 Eh/α |
          | HOMO-LUMO GAP               0.184594130335 eV   |
           -------------------------------------------------

------------------------------------------------------------------------
 * finished run on 2026/04/17 at 12:14:58.138     
------------------------------------------------------------------------
 total:
 * wall-time:     0 d,  0 h,  0 min,  0.046 sec
 *  cpu-time:     0 d,  0 h,  0 min,  0.046 sec
 * ratio c/w:     0.999 speedup
 SCF:
 * wall-time:     0 d,  0 h,  0 min,  0.033 sec
 *  cpu-time:     0 d,  0 h,  0 min,  0.033 sec
 * ratio c/w:     1.000 speedup


-------------------------   --------------------
FINAL SINGLE POINT ENERGY       -13.688728606060
-------------------------   --------------------


-------------
DIPOLE MOMENT
-------------
                                X             Y             Z
Total Dipole Moment    :      0.00000      -0.00000      -0.00000
                        -----------------------------------------
Magnitude (a.u.)       :      0.00000
Magnitude (Debye)      :      0.00000


------------------
CARTESIAN GRADIENT
------------------

   1   B   :   -0.069073368    0.056756374    0.000000000
   2   B   :    0.022992224   -0.100546369   -0.000000000
   3   B   :    0.010910768    0.089898107   -0.000000000
   4   B   :   -0.006548623   -0.096552205   -0.000000000
   5   B   :   -0.006598506    0.095842254   -0.000000000
   6   B   :    0.000092218   -0.084325800    0.000000000
   7   B   :   -0.000092171    0.084325900   -0.000000000
   8   B   :    0.006598436   -0.095842310   -0.000000000
   9   B   :    0.006548496    0.096552052   -0.000000000
  10   B   :   -0.010910752   -0.089898025    0.000000000
[...]
    34. D(B   5,B   4,B   2,B   0)    180.00  0.000000   -0.00    180.00   
    35. D(B   5,B   4,B   2,B   1)     -0.00  0.000000   -0.00     -0.00   
    36. D(B   6,B   5,B   4,B   3)   -180.00  0.000000   -0.00   -180.00   
    37. D(B   7,B   6,B   5,B   4)    179.99 -0.000005    0.01    180.00   
    38. D(B   8,B   7,B   6,B   5)   -180.00  0.000000   -0.00   -180.00   
    39. D(B  11,B   9,B   7,B   6)    180.00  0.000000   -0.00    180.00   
    40. D(B  10,B   9,B   7,B   6)     -0.00  0.000000   -0.00     -0.00   
    41. D(B  11,B  10,B   9,B   8)   -180.00 -0.000000    0.00   -180.00   
    42. D(B  10,B  11,B   9,B   8)    180.00  0.000000   -0.00    180.00   
    ----------------------------------------------------------------------------

Geometry step timings:
Preparation and reading OPT file:      0.000 s ( 1.752 %)
Internal coordinates            :      0.000 s ( 1.865 %)
B/P matrices and projection     :      0.000 s (24.194 %)
Hessian update/contruction      :      0.000 s (21.085 %)
Making the step                 :      0.000 s (19.276 %)
Converting the step to Cartesian:      0.000 s ( 2.600 %)
Storing new data                :      0.000 s ( 2.826 %)
Checking convergence            :      0.000 s ( 3.448 %)
Final printing                  :      0.000 s (22.894 %)
Total time                      :      0.002 s
                 *******************************************************
                 *** FINAL ENERGY EVALUATION AT THE STATIONARY POINT ***
                 ***               (AFTER   37 CYCLES)               ***
                 *******************************************************
---------------------------------
CARTESIAN COORDINATES (ANGSTROEM)
---------------------------------
  B    -5.888542    0.781907   -0.000013
  B    -5.903480   -0.657612    0.000057
  B    -4.468389    0.047190    0.000009
  B    -2.917398    0.030809   -0.000006
  B    -1.387351    0.014637   -0.000021
  B    -0.008379   -0.794651    0.000017
  B     0.008345    0.794525   -0.000065
  B     1.387356   -0.014708   -0.000022
  B     2.917405   -0.030824   -0.000007
  B     4.468396   -0.047153    0.000008
  B     5.903463    0.657700   -0.000017
  B     5.888574   -0.781820    0.000059

----------------------------
CARTESIAN COORDINATES (A.U.)
----------------------------
  NO LB    ZA    FRAG    MASS        X           Y           Z
   0 B   5.0000    0    10.810  -11.127731    1.477591   -0.000024
   1 B   5.0000    0    10.810  -11.155961   -1.242707    0.000109
   2 B   5.0000    0    10.810   -8.444031    0.089177    0.000017
   3 B   5.0000    0    10.810   -5.513083    0.058220   -0.000012
   4 B   5.0000    0    10.810   -2.621713    0.027660   -0.000040
   5 B   5.0000    0    10.810   -0.015835   -1.501673    0.000033
   6 B   5.0000    0    10.810    0.015770    1.501435   -0.000122
   7 B   5.0000    0    10.810    2.621722   -0.027795   -0.000042
   8 B   5.0000    0    10.810    5.513096   -0.058249   -0.000014
   9 B   5.0000    0    10.810    8.444045   -0.089105    0.000015
  10 B   5.0000    0    10.810   11.155928    1.242872   -0.000031
  11 B   5.0000    0    10.810   11.127793   -1.477426    0.000112

      -----------------------------------------------------------      
     |                   =====================                   |     
     |                           x T B                           |     
     |                   =====================                   |     
     |                         S. Grimme                         |     
     |          Mulliken Center for Theoretical Chemistry        |     
     |                    University of Bonn                     |     
      -----------------------------------------------------------      

   * xtb version 6.6.1 (unknown) compiled by 'builduser@buildhost' on 2023-08-07

   xtb is free software: you can redistribute it and/or modify it under
   the terms of the GNU Lesser General Public License as published by
   the Free Software Foundation, either version 3 of the License, or
   (at your option) any later version.
   
   xtb is distributed in the hope that it will be useful,
   but WITHOUT ANY WARRANTY; without even the implied warranty of
   MERCHANTABILITY or FITNESS FOR A PARTICULAR PURPOSE.  See the
   GNU Lesser General Public License for more details.
   
   Cite this work as:
   * C. Bannwarth, E. Caldeweyher, S. Ehlert, A. Hansen, P. Pracht,
     J. Seibert, S. Spicher, S. Grimme, WIREs Comput. Mol. Sci., 2020, 11,
     e01493. DOI: 10.1002/wcms.1493
   
   for GFN2-xTB:
   * C. Bannwarth, S. Ehlert and S. Grimme., J. Chem. Theory Comput., 2019,
     15, 1652-1671. DOI: 10.1021/acs.jctc.8b01176
   for GFN1-xTB:
   * S. Grimme, C. Bannwarth, P. Shushkov, J. Chem. Theory Comput., 2017,
     13, 1989-2009. DOI: 10.1021/acs.jctc.7b00118
   for GFN0-xTB:
   * P. Pracht, E. Caldeweyher, S. Ehlert, S. Grimme, ChemRxiv, 2019, preprint.
     DOI: 10.26434/chemrxiv.8326202.v1
   for GFN-FF:
   * S. Spicher and S. Grimme, Angew. Chem. Int. Ed., 2020, 59, 15665-15673.
     DOI: 10.1002/anie.202004239
   
   for ALPB and GBSA implicit solvation:
   * S. Ehlert, M. Stahn, S. Spicher, S. Grimme, J. Chem. Theory Comput.,
     2021, 17, 4250-4261. DOI: 10.1021/acs.jctc.1c00471
   
   for DFT-D4:
   * E. Caldeweyher, C. Bannwarth and S. Grimme, J. Chem. Phys., 2017,
     147, 034112. DOI: 10.1063/1.4993215
   * E. Caldeweyher, S. Ehlert, A. Hansen, H. Neugebauer, S. Spicher,
     C. Bannwarth and S. Grimme, J. Chem. Phys., 2019, 150, 154122.
     DOI: 10.1063/1.5090222
   * E. Caldeweyher, J.-M. Mewes, S. Ehlert and S. Grimme, Phys. Chem. Chem. Phys.
     2020, 22, 8499-8512. DOI: 10.1039/D0CP00502A
   
   for sTDA-xTB:
   * S. Grimme and C. Bannwarth, J. Chem. Phys., 2016, 145, 054103.
     DOI: 10.1063/1.4959605
   
   in the mass-spec context:
   * V. Asgeirsson, C. Bauer and S. Grimme, Chem. Sci., 2017, 8, 4879.
     DOI: 10.1039/c7sc00601b
   * J. Koopman and S. Grimme, ACS Omega 2019, 4, 12, 15120-15133.
     DOI: 10.1021/acsomega.9b02011
   
   for metadynamics refer to:
   * S. Grimme, J. Chem. Theory Comput., 2019, 155, 2847-2862
     DOI: 10.1021/acs.jctc.9b00143
   
   for SPH calculations refer to:
   * S. Spicher and S. Grimme, J. Chem. Theory Comput., 2021, 17, 1701-1714
     DOI: 10.1021/acs.jctc.0c01306
   
   with help from (in alphabetical order)
   P. Atkinson, C. Bannwarth, F. Bohle, G. Brandenburg, E. Caldeweyher
   M. Checinski, S. Dohm, S. Ehlert, S. Ehrlich, I. Gerasimov, C. Hölzer
   A. Katbashev, J. Koopman, C. Lavigne, S. Lehtola, F. März, M. Müller,
   F. Musil, H. Neugebauer, J. Pisarek, C. Plett, P. Pracht, F. Pultar,
   J. Seibert, P. Shushkov, S. Spicher, M. Stahn, M. Steiner, T. Strunk,
   J. Stückrath, T. Rose, and J. Unsleber
   
 * started run on 2026/04/17 at 12:15:00.135     

           -------------------------------------------------
          |                Calculation Setup                |
           -------------------------------------------------

          program call               : /usr/bin/xtb zigzag_chain12_d1.50_m3_XTB.xyz --grad -c 0 -u 2 -P 1 --namespace zigzag_chain12_d1.50_m3 --input zigzag_chain12_d1.50_m3_XTB.input.tmp --acc 0.200000
          calculation namespace      : zigzag_chain12_d1.50_m3
          coordinate file            : zigzag_chain12_d1.50_m3_XTB.xyz
          omp threads                :                     1

   ID    Z sym.   atoms
    1    5 B      1-12

           -------------------------------------------------
          |                 G F N 2 - x T B                 |
           -------------------------------------------------

        Reference                      10.1021/acs.jctc.8b01176
      * Hamiltonian:
        H0-scaling (s, p, d)           1.850000    2.230000    2.230000
        zeta-weighting                 0.500000
      * Dispersion:
        s8                             2.700000
        a1                             0.520000
        a2                             5.000000
        s9                             5.000000
      * Repulsion:
        kExp                           1.500000    1.000000
        rExp                           1.000000
      * Coulomb:
        alpha                          2.000000
        third order                    shell-resolved
        anisotropic                    true
        a3                             3.000000
        a5                             4.000000
        cn-shift                       1.200000
        cn-exp                         4.000000
        max-rad                        5.000000

q/qsh data taken from xtbrestart
CAMM data taken from xtbrestart

          ...................................................
          :                      SETUP                      :
          :.................................................:
          :  # basis functions                  48          :
          :  # atomic orbitals                  48          :
          :  # shells                           24          :
          :  # electrons                        36          :
          :  max. iterations                   250          :
          :  Hamiltonian                  GFN2-xTB          :
          :  restarted?                       true          :
          :  GBSA solvation                  false          :
          :  PC potential                    false          :
          :  electronic temp.          300.0000000     K    :
          :  accuracy                    0.2000000          :
          :  -> integral cutoff          0.3198970E+02      :
          :  -> integral neglect         0.2000000E-08      :
          :  -> SCF convergence          0.2000000E-06 Eh   :
          :  -> wf. convergence          0.2000000E-04 e    :
          :  Broyden damping             0.4000000          :
          ...................................................

 iter      E             dE          RMSdq      gap      omega  full diag
   1    -14.3460671 -0.143461E+02  0.240E-03    0.03       0.0  T
   2    -14.3460599  0.718703E-05  0.193E-02    0.03       1.5  T
   3    -14.3460668 -0.690467E-05  0.426E-03    0.03       6.8  T
   4    -14.3460670 -0.121482E-06  0.406E-03    0.03       7.1  T
   5    -14.3460670 -0.881453E-07  0.177E-03    0.03      16.3  T
   6    -14.3460671 -0.651349E-07  0.101E-03    0.03      28.5  T
   7    -14.3460671 -0.309939E-07  0.320E-04    0.03      90.3  T
   8    -14.3460671 -0.930799E-09  0.260E-04    0.03     111.1  T
   9    -14.3460671 -0.398492E-09  0.209E-04    0.03     138.4  T
  10    -14.3460671 -0.722421E-09  0.840E-05    0.03     343.5  T
  11    -14.3460671 -0.101009E-09  0.212E-05    0.03    1359.6  T

   *** convergence criteria satisfied after 11 iterations ***

         #    Occupation            Energy/Eh            Energy/eV
      -------------------------------------------------------------
         1        2.0000           -0.4112092             -11.1896
       ...           ...                  ...                  ...
        13        2.0000           -0.2839188              -7.7258
        14        2.0000           -0.2800072              -7.6194
        15        2.0000           -0.2751704              -7.4878
        16        2.0000           -0.2680581              -7.2942
        17        2.0000           -0.2646539              -7.2016
        18        1.0000           -0.2275806              -6.1928
        19        0.6430           -0.2036958              -5.5428 (HOMO)
        20        0.3404           -0.2025084              -5.5105 (LUMO)
        21        0.0166           -0.1992609              -5.4222
        22        0.0000           -0.1901902              -5.1753
        23        0.0000           -0.1896314              -5.1601
        24        0.0000           -0.1896201              -5.1598
       ...           ...                  ...                  ...
        48                          1.2363858              33.6438
      -------------------------------------------------------------
                  HL-Gap            0.0011874 Eh            0.0323 eV
             Fermi-level           -0.2246205 Eh           -6.1122 eV

 transition dipole moment (au) for excitation:          18          19
     X       Y       Z   
   0.0000  -0.0000  -0.0001  total (au/Debye):    0.000   0.000
 dE (eV)             :    0.650
 oscillator strength :  0.11263E-09

 SCC (total)                   0 d,  0 h,  0 min,  0.024 sec
 SCC setup                      ...        0 min,  0.000 sec (  0.675%)
 Dispersion                     ...        0 min,  0.000 sec (  0.426%)
 classical contributions        ...        0 min,  0.000 sec (  0.145%)
 integral evaluation            ...        0 min,  0.003 sec ( 10.404%)
 iterations                     ...        0 min,  0.012 sec ( 50.013%)
 molecular gradient             ...        0 min,  0.005 sec ( 21.537%)
 printout                       ...        0 min,  0.004 sec ( 16.673%)

         :::::::::::::::::::::::::::::::::::::::::::::::::::::
         ::                     SUMMARY                     ::
         :::::::::::::::::::::::::::::::::::::::::::::::::::::
         :: total energy             -14.074527288380 Eh    ::
         :: gradient norm              0.000051283901 Eh/a0 ::
         :: HOMO-LUMO gap              0.032309449408 eV    ::
         ::.................................................::
         :: SCC energy               -14.346067142067 Eh    ::
         :: -> isotropic ES            0.112309611002 Eh    ::
         :: -> anisotropic ES          0.002196708561 Eh    ::
         :: -> anisotropic XC         -0.030258560713 Eh    ::
         :: -> dispersion             -0.007542759156 Eh    ::
         :: repulsion energy           0.271630884700 Eh    ::
         :: add. restraining           0.000000000000 Eh    ::
         :: total charge               0.000000000086 e     ::
         :::::::::::::::::::::::::::::::::::::::::::::::::::::


Property printout bound to 'properties.out'

           -------------------------------------------------
          | TOTAL ENERGY              -14.074527288380 Eh   |
          | GRADIENT NORM               0.000051283901 Eh/α |
          | HOMO-LUMO GAP               0.032309449408 eV   |
           -------------------------------------------------

------------------------------------------------------------------------
 * finished run on 2026/04/17 at 12:15:00.172     
------------------------------------------------------------------------
 total:
 * wall-time:     0 d,  0 h,  0 min,  0.037 sec
 *  cpu-time:     0 d,  0 h,  0 min,  0.037 sec
 * ratio c/w:     0.998 speedup
 SCF:
 * wall-time:     0 d,  0 h,  0 min,  0.024 sec
 *  cpu-time:     0 d,  0 h,  0 min,  0.024 sec
 * ratio c/w:     0.997 speedup


-------------------------   --------------------
FINAL SINGLE POINT ENERGY       -14.074527288380
-------------------------   --------------------


-------------
DIPOLE MOMENT
-------------
                                X             Y             Z
Total Dipole Moment    :     -0.00000       0.00000       0.00000
                        -----------------------------------------
Magnitude (a.u.)       :      0.00000
Magnitude (Debye)      :      0.00000

                                *** OPTIMIZATION RUN DONE ***


--------------------------------
SUGGESTED CITATIONS FOR THIS RUN
--------------------------------

Below you find a list of papers that are relevant to this ORCA run
We neither can nor want to force you to cite these papers, but we appreciate if you do
You receive ORCA, which is the product of decades of hard work by many enthusiastic individuals, for free
The only thing we kindly ask in return is that you cite our papers,
We deeply appreciate it, if you show your appreciation for ORCA by not just citing the generic ORCA reference.

Please note that relegating all ORCA citations to the supporting information does *not* help us.
SI sections are not indexed - citations you put there will not count into any citation statistics
But we need these citations in order to attract the funding resources that allow us to do what we are doing

Therefore, if you are a happy ORCA user, please consider citing a few of the papers listed below in the main body of your paper

In addition to the list printed below, the program has created the file zigzag_chain12_d1.50_m3.bibtex that contains the list in bibtex format
You can import this file easily into all common literature databanks and citation aid programs

It goes without saying that in many instances, there are alternative algorithms to achieve similar
results as the ones you have gotten from ORCA. It is, of course, also the case that in some instances
ORCA just re-implements algorithms worked out by others. We are fully aware of that and we are also
fully appreciative of our colleagues work. Hence this citation list should not be read as indicating
that the listed papers, which are focused on our own work, are the only ones worth citing. It simply
meant to make it easier for users to cite ORCA specific papers. It is not a substitute for doing your
own literature research and citing the relevant literature in a scientifically appropriate manner.

List of essential papers. We consider these as the minimum necessary citations

  1. Bannwarth, C.; Ehlert, S.; Grimme, S.
     GFN2-xTB—An Accurate and Broadly Parametrized Self-Consistent Tight-Binding Quantum Chemical Method with Multipole Electrostatics and Density-Dependent Dispersion Contributions
     J. Chem. Theory Comput. 2019 15(3), 1652-1671
     doi.org/10.1021/acs.jctc.8b01176
  2. Neese, F.
     Software update: the ORCA program system, version 6.0
     WIRES Comput. Molec. Sci. 2025 15(1), e70019
     doi.org/10.1002/wcms.70019

List of papers to cite with high priority. The work reported in these papers was absolutely
necessary for this run to complete.
Our perspective: the developers of density functionals and basis sets usually get cited in chemistry papers
Good! But without the algorithms to do something with them, the functionals or basis sets would not do anything.
Hence, in our opinion, the algorithm design and method developments papers are equally worthy of getting cited

  1. Bannwarth, C.; Caldeweyher, E.; Ehlert, S.; Hansen, A.; Pracht, P.; Seibert, J.; Spicher, S.; Grimme, S.
     Extended tight-binding quantum chemistry methods
     WIRES Comput. Molec. Sci. 2020 11(2), e1493
     doi.org/10.1002/wcms.1493

List of suggested additional citations. These are papers that are important in the 'surrounding' of 
of this run, or papers that preceded the highly important papers. If you like your results we are grateful for a citation.

  1. Neese, F.
     The ORCA program system
     WIRES Comput. Molec. Sci. 2012 2(1), 73-78
     doi.org/10.1002/wcms.81
  2. Neese, F.
     Software update: the ORCA program system, version 4.0
     WIRES Comput. Molec. Sci. 2018 8(1), 1-6
     doi.org/10.1002/wcms.1327
  3. Neese, F.; Wennmohs, F.; Becker, U.; Riplinger, C.
     The ORCA quantum chemistry program package
     J. Chem. Phys. 2020 152(22), 224108
     doi.org/10.1063/5.0004608
  4. Neese, F.
     Software update: The ORCA program system—Version 5.0
     WIRES Comput. Molec. Sci. 2022 12(1), e1606
     doi.org/10.1002/wcms.1606

List of optional additional citations

  1. Neese, F.
     Approximate second-order SCF convergence for spin unrestricted wavefunctions
     Chem. Phys. Lett. 2000 325(1-3), 93-98
     doi.org/10.1016/s0009-2614(00)00662-x

Timings for individual modules:

Sum of individual times          ...        2.030 sec (=   0.034 min)
Geometry relaxation              ...        0.112 sec (=   0.002 min)   5.5 %
XTB module                       ...        1.918 sec (=   0.032 min)  94.5 %
                             ****ORCA TERMINATED NORMALLY****
TOTAL RUN TIME: 0 days 0 hours 0 minutes 2 seconds 394 msec
