
                                 *****************
                                 * O   R   C   A *
                                 *****************

                                            #,                                       
                                            ###                                      
                                            ####                                     
                                            #####                                    
                                            ######                                   
                                           ########,                                 
                                     ,,################,,,,,                         
                               ,,#################################,,                 
                          ,,##########################################,,             
                       ,#########################################, ''#####,          
                    ,#############################################,,   '####,        
                  ,##################################################,,,,####,       
                ,###########''''           ''''###############################       
              ,#####''   ,,,,##########,,,,          '''####'''          '####       
            ,##' ,,,,###########################,,,                        '##       
           ' ,,###''''                  '''############,,,                           
         ,,##''                                '''############,,,,        ,,,,,,###''
      ,#''                                            '''#######################'''  
     '                                                          ''''####''''         
             ,#######,   #######,   ,#######,      ##                                
            ,#'     '#,  ##    ##  ,#'     '#,    #''#        ,####,    ,#,          
            ##       ##  ##   ,#'  ##            #'  '#       #'       ,# #          
            ##       ##  #######   ##           ,######,      #####,      #          
            '#,     ,#'  ##    ##  '#,     ,#' ,#      #,     #,   #      #          
             '#######'   ##     ##  '#######'  #'      '#     '####' #    #          



                #########################################################
                #                        -***-                          #
                #          Department of theory and spectroscopy        #
                #                                                       #
                #                      Frank Neese                      #
                #                                                       #
                #     Directorship, Architecture, Infrastructure        #
                #                    SHARK, DRIVERS                     #
                #        Core code/Algorithms in most modules           #
                #                                                       #
                #        Max Planck Institute fuer Kohlenforschung      #
                #                Kaiser Wilhelm Platz 1                 #
                #                 D-45470 Muelheim/Ruhr                 #
                #                      Germany                          #
                #                                                       #
                #                  All rights reserved                  #
                #                        -***-                          #
                #########################################################


                         Program Version 6.1.1  -  RELEASE   -
                                (GIT: $487d211c$)
                          ($2025-11-21 10:33:24 +0100$)
                                                                         
                                  - NO-DMRG VERSION -                    
                                                                         


 With contributions from (in alphabetic order):
[Max-Planck-Institut fuer Kohlenforschung]                               
  Daniel Aravena         : Magnetic Suceptibility                        
  Michael Atanasov       : Ab Initio Ligand Field Theory (pilot matlab implementation)
  Alexander A. Auer      : GIAO ZORA, VPT2 properties, NMR spectrum      
  Ute Becker             : All parallelization in ORCA, NUMFREQ, NUMCALC 
  Giovanni Bistoni       : ED, misc. LED, open-shell LED, HFLD           
  Dmytro Bykov           : pre 5.0 version of the SCF Hessian            
  Marcos Casanova-Páez   : Triplet and SCS-CIS(D). UHF-(DLPNO)-IP/EA/STEOM-CCSD. UHF-CVS-IP/STEOM-CCSD   
  Vijay G. Chilkuri      : MRCI spin determinant printing, contributions to CSF-ICE 
  Pauline Colinet        : FMM embedding                                 
  Dipayan Datta          : RHF DLPNO-CCSD density                        
  Achintya Kumar Dutta   : EOM-CC, STEOM-CC                              
  Nicolas Foglia         : Exact transition moments, OPA infrastructure, MCD improvements    
  Dmitry Ganyushin       : Spin-Orbit,Spin-Spin,Magnetic field MRCI      
  Miquel Garcia-Rates    : C-PCM and meta-GGA Hessian, CCSD/C-PCM, Gaussian charge scheme 
  Tiago L. C. Gouveia    : GS-ROHF, GS-ROCIS                             
  Yang Guo               : DLPNO-NEVPT2, F12-NEVPT2, CIM, IAO-localization        
  Andreas Hansen         : Spin unrestricted coupled pair/coupled cluster methods 
  Ingolf Harden          : AUTO-CI MPn and infrastructure                
  Benjamin Helmich-Paris : MC-RPA, TRAH-(SCF,CASSCF), AVAS, COSX integrals, SCF dyn. polar., MC-PDFT, srDFT 
  Lee Huntington         : MR-EOM, pCC                                   
  Robert Izsak           : Overlap fitted RIJCOSX, COSX-SCS-MP3, EOM     
  Riya Kayal             : Wick's Theorem for AUTO-CI, AUTO-CI UHF-CCSDT 
  Emily Kempfer          : AUTO-CI RHF CISDT and CCSDT, approximate NEVPT4
  Christian Kollmar      : KDIIS, OOCD, Brueckner-CCSD(T), CCSD density, CASPT2, CASPT2-K, improved NEVPT2 
  Axel Koslowski         : Symmetry handling                             
  Simone Kossmann        : meta-GGA functionals, TD-DFT gradient, OOMP2, (MP2 Hessian; deprecated post 5.0) 
  Lucas Lang             : DCDCAS, Hyperfine gauge corrections, ICE-SOC+SSC
  Marvin Lechner         : AUTO-CI (C++ implementation), FIC-MRCC        
  Spencer Leger          : CASSCF response                               
  Dagmar Lenk            : GEPOL surface, SMD, ORCA-2-JSON               
  Dimitrios Liakos       : Extrapolation schemes; Compound Job, Property file
  Dimitrios Manganas     : Further ROCIS development; embedding schemes. LFT, Crystal Embedding 
  Dimitrios Pantazis     : SARC Basis sets                               
  Anastasios Papadopoulos: AUTO-CI, single reference methods and gradients 
  Taras Petrenko         : pre 6.0 DFT Hessian and TD-DFT gradient,  ECA, NRVS 
  Petra Pikulova         : Analytic Raman intensities                    
  Peter Pinski           : DLPNO-MP2, DLPNO-MP2 Gradient                 
  Shashank Vittal Rao    : ES-AILFT, MagRelax                            
  Christoph Reimann      : Effective Core Potentials                     
  Marius Retegan         : Local ZFS, SOC                                
  Christoph Riplinger    : Optimizer, TS searches, QM/MM, DLPNO-CCSD(T), (RO)-DLPNO pert. Triples 
  Michael Roemelt        : Original ROCIS implementation, recursive CI coupling coefficients
  Masaaki Saitow         : Open-shell DLPNO-CCSD energy and density      
  Barbara Sandhoefer     : DKH picture change effects                    
  Yorick L. A. Schmerwitz: GMF and freeze-and-release deltaSCF, NEB S-IDPP initial path                    
  Kantharuban Sivalingam : CASSCF convergence/infrastructure, NEVPT2, NEVPT3, NEVPT4(SD), FIC-MRCI and CEPA variants
  Bernardo de Souza      : ESD, SOC TD-DFT                               
  Georgi L. Stoychev     : AutoAux, RI-MP2 NMR, DLPNO-MP2 response, X2C  
  Van Anh Tran           : RI-MP2 g-tensors                              
  Willem Van den Heuvel  : Paramagnetic NMR                              
  Zikuan Wang            : NOTCH, Electric field optimization            
  Frank Wennmohs         : Technical directorship and infrastructure     
  Hang Xu                : AUTO-CI-Response properties                   
                                                                         
[FACCTs GmbH]                                                            
  Markus Bursch, Nicolas Foglia, Miquel Garcia-Rates, Ingolf Harden, Hagen Neugebauer, Anastasios Papadopoulos, 
  Christoph Riplinger, Bernardo de Souza, Georgi L. Stoychev                                                    
                                                                 
  APM, various basis sets, CI-OPT, improved COSX, DLPNO-Multilevel,           
  DOCKER, DRACO, updates on ESD, Fragmentator, GOAT, IRC, LR-CPCM, L-BFGS, MBIS, meta-GGA TD-DFT gradient, ML-optimized integration grids, 
  MM, NACMEs, nearIR, NEB, NEB-TS, NL-DFT gradient (VV10), 2- and 3-layer-ONIOM, interface openCOSMO-RS, QMMM,   
  Crystal-QMMM, RESP, rigid body optimization, SF, symmetry and pop. for TD-DFT, various functionals, SOLVATOR                                   
                                                                         
[Other institutions]                                                     
  V. Asgeirsson          : NEB                                           
  Christoph Bannwarth    : sTDA-DFT, sTD-DFT, PBEh-3c, B97-3c, D3        
  Giovanni Bistoni       : ETS/NOCV, ADLD/ADEX, COVALED                  
  Martin Brehm           : Molecular dynamics                            
  Ronald Cardenas        : ETS/NOCV                                      
  Martina Colucci        : COVALED                                       
  Sebastian Ehlert       : rSCAN, r2SCAN, r2SCAN-3c, D4, dhf basis sets  
  Marvin Friede          : D4 for Fr, Ra, Ac-Lr                          
  Lars Goerigk           : TD-DFT with DH, B97 family of functionals     
  Stefan Grimme          : VdW corrections, initial TS optimization, DFT functionals, gCP, sTDA/sTD-DF 
  Waldemar Hujo          : DFT-NL                                        
  H. Jonsson             : NEB                                           
  Holger Kruse           : gCP                                           
  Marcel Mueller         : wB97X-3c, vDZP basis set                      
  Hagen Neugebauer       : wr2SCAN, Native XTB                           
  Gianluca Regni         : ADLD/ADEX                                     
  Tobias Risthaus        : pre 6.0 range-separated hybrid DFT and stability analysis
  Lukas Wittmann         : regularized MP2, r2SCAN double-hybrids, wr2SCAN        
                                                                         
We gratefully acknowledge several colleagues who have allowed us to      
interface, adapt or use parts of their codes:                            
  Ed Valeev, F. Pavosevic, A. Kumar             : LibInt (2-el integral package), F12 methods 
  Garnet Chan, S. Sharma, J. Yang, R. Olivares  : DMRG                   
  Ulf Ekstrom                                   : XCFun DFT Library      
  Mihaly Kallay                                 : mrcc  (arbitrary order and MRCC methods)
  Frank Weinhold                                : gennbo (NPA and NBO analysis)           
  Simon Mueller                                 : openCOSMO-RS                            
  Christopher J. Cramer and Donald G. Truhlar   : smd solvation model                     
  S Lehtola, MJT Oliveira, MAL Marques          : LibXC Library                           
  Liviu Ungur et al                             : ANISO software                          


 Your calculation uses the libint2 library for the computation of 2-el integrals
 For citations please refer to: http://libint.valeyev.net

 Your ORCA version has been built with support for libXC version: 7.0.0
 For citations please refer to: https://libxc.gitlab.io

 This ORCA versions uses:
   CBLAS   interface :  Fast vector & matrix operations
   LAPACKE interface :  Fast linear algebra routines
   SCALAPACK package :  Parallel linear algebra routines
   Shared memory     :  Shared parallel matrices
   BLAS/LAPACK       :  OpenBLAS 0.3.29  USE64BITINT DYNAMIC_ARCH NO_AFFINITY Zen SINGLE_THREADED
        Core in use  :  Zen
   Copyright (c) 2011-2014, The OpenBLAS Project


  ***********************************
  * Starting time: Fri Apr 17 12:14:59 2026
  * Host name:     vmi3233575
  * Process ID:    341373
  * Working dir.:  /root/orca_b12_vps_pack/jobs/01_xtb/mult_3
  ***********************************

NOTE: MaxCore=500 MB was set to SCF,MP2,MDCI,CIPSI,MRCI,RASCI and CIS
      => If you want to overwrite this, your respective input block should be placed after the MaxCore statement


***************************************
The coordinates will be read from file: ../../../starts/zigzag_chain12_d1.70.xyz
***************************************


Your calculation utilizes the semiempirical GFN2-xTB method
Please cite in your paper:
Bannwarth, C.; Ehlert S.; Grimme, S. J. Chem. Theory Comput. 2019, 15, 1652.
   

================================================================================

================================================================================
                                        WARNINGS
                       Please study these warnings very carefully!
================================================================================


WARNING: Geometry Optimization
  ===> : Switching off AutoStart
         For restart on a previous wavefunction, please use MOREAD

WARNING: Found dipole moment calculation with XTB calculation
  ===> : Switching off dipole moment calculation

Environment variable XTBEXE for xtb has been set!

================================================================================
                                       INPUT FILE
================================================================================
NAME = zigzag_chain12_d1.70_m3.inp
|  1> ! GFN2-xTB TightSCF TightOpt
|  2> 
|  3> %pal
|  4>   nprocs 1
|  5> end
|  6> 
|  7> %maxcore 500
|  8> 
|  9> * xyzfile 0 3 ../../../starts/zigzag_chain12_d1.70.xyz
| 10> 
| 11>                          ****END OF INPUT****
================================================================================

                       *****************************
                       * Geometry Optimization Run *
                       *****************************

Geometry optimization settings:
Update method            Update   .... BFGS
Choice of coordinates    CoordSys .... (2022) Redundant Internals
Initial Hessian          InHess   .... Almloef's Model
Max. no of cycles        MaxIter  .... 50

Convergence Tolerances:
Energy Change            TolE     ....  1.0000e-06 Eh
Max. Gradient            TolMAXG  ....  1.0000e-04 Eh/bohr
RMS Gradient             TolRMSG  ....  3.0000e-05 Eh/bohr
Max. Displacement        TolMAXD  ....  1.0000e-03 bohr
RMS Displacement         TolRMSD  ....  6.0000e-04 bohr
Strict Convergence                .... False

------------------------------------------------------------------------------
                        ORCA OPTIMIZATION COORDINATE SETUP
------------------------------------------------------------------------------

The optimization will be done in redundant internal coordinates (2022)
Making redundant internal coordinates   ...  (2022 redundants) done
Evaluating the initial hessian          ...  (Almloef) done
Evaluating the coordinates              ...  done
Calculating the B-matrix                .... done
Calculating the G-matrix                .... done
The number of degrees of freedom        ....   30

    -----------------------------------------------------------------
                    Redundant Internal Coordinates


    -----------------------------------------------------------------
         Definition                    Initial Value    Approx d2E/dq
    -----------------------------------------------------------------
      1. B(B   1,B   0)                  1.9652         0.101299   
      2. B(B   2,B   1)                  1.9652         0.101299   
      3. B(B   3,B   2)                  1.9652         0.101299   
      4. B(B   4,B   3)                  1.9652         0.101299   
      5. B(B   5,B   4)                  1.9652         0.101299   
      6. B(B   6,B   5)                  1.9652         0.101299   
      7. B(B   7,B   6)                  1.9652         0.101299   
      8. B(B   8,B   7)                  1.9652         0.101299   
      9. B(B   9,B   8)                  1.9652         0.101299   
     10. B(B  10,B   9)                  1.9652         0.101299   
     11. B(B  11,B  10)                  1.9652         0.101299   
     12. A(B   0,B   1,B   2)          105.4672         0.247569   
     13. A(B   1,B   2,B   3)          105.4672         0.247569   
     14. A(B   2,B   3,B   4)          105.4672         0.247569   
     15. A(B   3,B   4,B   5)          105.4672         0.247569   
     16. A(B   4,B   5,B   6)          105.4672         0.247569   
     17. A(B   5,B   6,B   7)          105.4672         0.247569   
     18. A(B   6,B   7,B   8)          105.4672         0.247569   
     19. A(B   7,B   8,B   9)          105.4672         0.247569   
     20. A(B   8,B   9,B  10)          105.4672         0.247569   
     21. A(B   9,B  10,B  11)          105.4672         0.247569   
     22. D(B   3,B   2,B   1,B   0)    180.0000         0.010000   
     23. D(B   4,B   3,B   2,B   1)    180.0000         0.010000   
     24. D(B   5,B   4,B   3,B   2)    180.0000         0.010000   
     25. D(B   6,B   5,B   4,B   3)    180.0000         0.010000   
     26. D(B   7,B   6,B   5,B   4)    180.0000         0.010000   
     27. D(B   8,B   7,B   6,B   5)    180.0000         0.010000   
     28. D(B   9,B   8,B   7,B   6)    180.0000         0.010000   
     29. D(B  10,B   9,B   8,B   7)    180.0000         0.010000   
     30. D(B  11,B  10,B   9,B   8)    180.0000         0.010000   
    -----------------------------------------------------------------

Number of atoms                         .... 12
Number of degrees of freedom            .... 30


         *************************************************************
         *                GEOMETRY OPTIMIZATION CYCLE   1            *
         *************************************************************
---------------------------------
CARTESIAN COORDINATES (ANGSTROEM)
---------------------------------
  B    -8.602000    0.595000    0.000000
  B    -7.038000   -0.595000    0.000000
  B    -5.474000    0.595000    0.000000
  B    -3.910000   -0.595000    0.000000
  B    -2.346000    0.595000    0.000000
  B    -0.782000   -0.595000    0.000000
  B     0.782000    0.595000    0.000000
  B     2.346000   -0.595000    0.000000
  B     3.910000    0.595000    0.000000
  B     5.474000   -0.595000    0.000000
  B     7.038000    0.595000    0.000000
  B     8.602000   -0.595000    0.000000

----------------------------
CARTESIAN COORDINATES (A.U.)
----------------------------
  NO LB    ZA    FRAG    MASS        X           Y           Z
   0 B   5.0000    0    10.810  -16.255424    1.124387    0.000000
   1 B   5.0000    0    10.810  -13.299893   -1.124387    0.000000
   2 B   5.0000    0    10.810  -10.344361    1.124387    0.000000
   3 B   5.0000    0    10.810   -7.388829   -1.124387    0.000000
   4 B   5.0000    0    10.810   -4.433298    1.124387    0.000000
   5 B   5.0000    0    10.810   -1.477766   -1.124387    0.000000
   6 B   5.0000    0    10.810    1.477766    1.124387    0.000000
   7 B   5.0000    0    10.810    4.433298   -1.124387    0.000000
   8 B   5.0000    0    10.810    7.388829    1.124387    0.000000
   9 B   5.0000    0    10.810   10.344361   -1.124387    0.000000
  10 B   5.0000    0    10.810   13.299893    1.124387    0.000000
  11 B   5.0000    0    10.810   16.255424   -1.124387    0.000000

      -----------------------------------------------------------      
     |                   =====================                   |     
     |                           x T B                           |     
     |                   =====================                   |     
     |                         S. Grimme                         |     
     |          Mulliken Center for Theoretical Chemistry        |     
     |                    University of Bonn                     |     
      -----------------------------------------------------------      

   * xtb version 6.6.1 (unknown) compiled by 'builduser@buildhost' on 2023-08-07

   xtb is free software: you can redistribute it and/or modify it under
   the terms of the GNU Lesser General Public License as published by
   the Free Software Foundation, either version 3 of the License, or
   (at your option) any later version.
   
   xtb is distributed in the hope that it will be useful,
   but WITHOUT ANY WARRANTY; without even the implied warranty of
   MERCHANTABILITY or FITNESS FOR A PARTICULAR PURPOSE.  See the
   GNU Lesser General Public License for more details.
   
   Cite this work as:
   * C. Bannwarth, E. Caldeweyher, S. Ehlert, A. Hansen, P. Pracht,
     J. Seibert, S. Spicher, S. Grimme, WIREs Comput. Mol. Sci., 2020, 11,
     e01493. DOI: 10.1002/wcms.1493
   
   for GFN2-xTB:
   * C. Bannwarth, S. Ehlert and S. Grimme., J. Chem. Theory Comput., 2019,
     15, 1652-1671. DOI: 10.1021/acs.jctc.8b01176
   for GFN1-xTB:
   * S. Grimme, C. Bannwarth, P. Shushkov, J. Chem. Theory Comput., 2017,
     13, 1989-2009. DOI: 10.1021/acs.jctc.7b00118
   for GFN0-xTB:
   * P. Pracht, E. Caldeweyher, S. Ehlert, S. Grimme, ChemRxiv, 2019, preprint.
     DOI: 10.26434/chemrxiv.8326202.v1
   for GFN-FF:
   * S. Spicher and S. Grimme, Angew. Chem. Int. Ed., 2020, 59, 15665-15673.
     DOI: 10.1002/anie.202004239
   
   for ALPB and GBSA implicit solvation:
   * S. Ehlert, M. Stahn, S. Spicher, S. Grimme, J. Chem. Theory Comput.,
     2021, 17, 4250-4261. DOI: 10.1021/acs.jctc.1c00471
   
   for DFT-D4:
   * E. Caldeweyher, C. Bannwarth and S. Grimme, J. Chem. Phys., 2017,
     147, 034112. DOI: 10.1063/1.4993215
   * E. Caldeweyher, S. Ehlert, A. Hansen, H. Neugebauer, S. Spicher,
     C. Bannwarth and S. Grimme, J. Chem. Phys., 2019, 150, 154122.
     DOI: 10.1063/1.5090222
   * E. Caldeweyher, J.-M. Mewes, S. Ehlert and S. Grimme, Phys. Chem. Chem. Phys.
     2020, 22, 8499-8512. DOI: 10.1039/D0CP00502A
   
   for sTDA-xTB:
   * S. Grimme and C. Bannwarth, J. Chem. Phys., 2016, 145, 054103.
     DOI: 10.1063/1.4959605
   
   in the mass-spec context:
   * V. Asgeirsson, C. Bauer and S. Grimme, Chem. Sci., 2017, 8, 4879.
     DOI: 10.1039/c7sc00601b
   * J. Koopman and S. Grimme, ACS Omega 2019, 4, 12, 15120-15133.
     DOI: 10.1021/acsomega.9b02011
   
   for metadynamics refer to:
   * S. Grimme, J. Chem. Theory Comput., 2019, 155, 2847-2862
     DOI: 10.1021/acs.jctc.9b00143
   
   for SPH calculations refer to:
   * S. Spicher and S. Grimme, J. Chem. Theory Comput., 2021, 17, 1701-1714
     DOI: 10.1021/acs.jctc.0c01306
   
   with help from (in alphabetical order)
   P. Atkinson, C. Bannwarth, F. Bohle, G. Brandenburg, E. Caldeweyher
   M. Checinski, S. Dohm, S. Ehlert, S. Ehrlich, I. Gerasimov, C. Hölzer
   A. Katbashev, J. Koopman, C. Lavigne, S. Lehtola, F. März, M. Müller,
   F. Musil, H. Neugebauer, J. Pisarek, C. Plett, P. Pracht, F. Pultar,
   J. Seibert, P. Shushkov, S. Spicher, M. Stahn, M. Steiner, T. Strunk,
   J. Stückrath, T. Rose, and J. Unsleber
   
 * started run on 2026/04/17 at 12:14:59.953     

           -------------------------------------------------
          |                Calculation Setup                |
           -------------------------------------------------

          program call               : /usr/bin/xtb zigzag_chain12_d1.70_m3_XTB.xyz --grad -c 0 -u 2 -P 1 --namespace zigzag_chain12_d1.70_m3 --input zigzag_chain12_d1.70_m3_XTB.input.tmp --acc 0.200000
          calculation namespace      : zigzag_chain12_d1.70_m3
          coordinate file            : zigzag_chain12_d1.70_m3_XTB.xyz
          omp threads                :                     1

   ID    Z sym.   atoms
    1    5 B      1-12

molecular fragmentation (1/2 indicates fragments):
112222222222
# atoms in fragment 1/2:     2    10
 fragment masses (1/2) :       21.62      108.11
CMA distance (Bohr)    :  17.733
constraining FC (au)   :  0.0500

           -------------------------------------------------
          |                 G F N 2 - x T B                 |
           -------------------------------------------------

        Reference                      10.1021/acs.jctc.8b01176
      * Hamiltonian:
        H0-scaling (s, p, d)           1.850000    2.230000    2.230000
        zeta-weighting                 0.500000
      * Dispersion:
        s8                             2.700000
        a1                             0.520000
        a2                             5.000000
        s9                             5.000000
      * Repulsion:
        kExp                           1.500000    1.000000
        rExp                           1.000000
      * Coulomb:
        alpha                          2.000000
        third order                    shell-resolved
        anisotropic                    true
        a3                             3.000000
        a5                             4.000000
        cn-shift                       1.200000
        cn-exp                         4.000000
        max-rad                        5.000000


          ...................................................
          :                      SETUP                      :
          :.................................................:
          :  # basis functions                  48          :
          :  # atomic orbitals                  48          :
          :  # shells                           24          :
          :  # electrons                        36          :
          :  max. iterations                   250          :
          :  Hamiltonian                  GFN2-xTB          :
          :  restarted?                      false          :
          :  GBSA solvation                  false          :
          :  PC potential                    false          :
          :  electronic temp.          300.0000000     K    :
          :  accuracy                    0.2000000          :
          :  -> integral cutoff          0.3198970E+02      :
          :  -> integral neglect         0.2000000E-08      :
          :  -> SCF convergence          0.2000000E-06 Eh   :
          :  -> wf. convergence          0.2000000E-04 e    :
          :  Broyden damping             0.4000000          :
          ...................................................

 iter      E             dE          RMSdq      gap      omega  full diag
   1    -13.0648847 -0.130649E+02  0.234E+01    0.07       0.0  T
   2     -6.8497367  0.621515E+01  0.164E+01    0.04       1.0  T
   3     36.0448405  0.428946E+02  0.351E+01    0.00       1.0  T
   4     -2.0685747 -0.381134E+02  0.191E+01    0.07       1.0  T
   5     -6.1322677 -0.406369E+01  0.161E+01    0.14       1.0  T
   6     -5.7478568  0.384411E+00  0.152E+01    0.24       1.0  T
   7     -8.3407460 -0.259289E+01  0.123E+01    0.00       1.0  T
   8    -10.8088743 -0.246813E+01  0.979E+00    0.12       1.0  T
   9    -11.4759489 -0.667075E+00  0.748E+00    0.08       1.0  T
  10    -13.0160848 -0.154014E+01  0.493E+00    0.22       1.0  T
  11    -11.9273983  0.108869E+01  0.676E+00    0.18       1.0  T
  12    -11.5715953  0.355803E+00  0.713E+00    0.17       1.0  T
  13    -11.9425847 -0.370989E+00  0.704E+00    0.18       1.0  T
  14    -12.1330243 -0.190440E+00  0.611E+00    0.17       1.0  T
  15    -12.4600757 -0.327051E+00  0.509E+00    0.19       1.0  T
  16    -12.8791892 -0.419113E+00  0.306E+00    0.23       1.0  T
  17    -12.8940808 -0.148916E-01  0.299E+00    0.23       1.0  T
  18    -12.8592016  0.348792E-01  0.304E+00    0.22       1.0  T
  19    -12.8622000 -0.299838E-02  0.300E+00    0.22       1.0  T
  20    -12.9884805 -0.126280E+00  0.246E+00    0.24       1.0  T
  21    -13.0820249 -0.935444E-01  0.193E+00    0.25       1.0  T
  22    -13.0821665 -0.141633E-03  0.189E+00    0.26       1.0  T
  23    -13.0842025 -0.203597E-02  0.190E+00    0.26       1.0  T
  24    -13.0998028 -0.156003E-01  0.161E+00    0.25       1.0  T
  25    -13.1181538 -0.183511E-01  0.130E+00    0.25       1.0  T
  26    -13.1191448 -0.990991E-03  0.129E+00    0.25       1.0  T
  27    -13.1175561  0.158871E-02  0.130E+00    0.25       1.0  T
  28    -13.1192915 -0.173544E-02  0.123E+00    0.25       1.0  T
  29    -13.1305646 -0.112730E-01  0.924E-01    0.25       1.0  T
  30    -13.1329063 -0.234175E-02  0.841E-01    0.25       1.0  T
  31    -13.1337178 -0.811438E-03  0.901E-01    0.25       1.0  T
  32    -13.1333685  0.349263E-03  0.818E-01    0.25       1.0  T
  33    -13.1290688  0.429971E-02  0.774E-01    0.25       1.0  T
  34    -13.1308797 -0.181091E-02  0.642E-01    0.25       1.0  T
  35    -13.1331647 -0.228505E-02  0.407E-01    0.26       1.0  T
  36    -13.1326732  0.491561E-03  0.406E-01    0.26       1.0  T
  37    -13.1349855 -0.231230E-02  0.219E-01    0.26       1.0  T
  38    -13.1356879 -0.702419E-03  0.160E-01    0.26       1.0  T
  39    -13.1359344 -0.246482E-03  0.979E-02    0.26       1.0  T
  40    -13.1358936  0.407322E-04  0.655E-02    0.26       1.0  T
  41    -13.1359798 -0.861347E-04  0.371E-02    0.26       1.0  T
  42    -13.1359913 -0.115092E-04  0.185E-02    0.26       1.6  T
  43    -13.1359949 -0.359036E-05  0.145E-02    0.26       2.0  T
  44    -13.1359957 -0.853968E-06  0.589E-03    0.26       4.9  T
  45    -13.1359961 -0.348854E-06  0.301E-03    0.26       9.6  T
  46    -13.1359962 -0.817901E-07  0.176E-03    0.26      16.4  T
  47    -13.1359962 -0.278942E-07  0.132E-03    0.26      21.9  T
  48    -13.1359962 -0.733908E-08  0.598E-04    0.26      48.3  T
  49    -13.1359962 -0.199630E-08  0.398E-04    0.26      72.6  T
  50    -13.1359962  0.336063E-08  0.331E-04    0.26      87.2  T
  51    -13.1359962  0.483885E-09  0.354E-04    0.26      81.5  T
  52    -13.1359962 -0.356826E-08  0.183E-04    0.26     157.5  T
  53    -13.1359962 -0.103734E-08  0.119E-04    0.26     241.7  T

   *** convergence criteria satisfied after 53 iterations ***

         #    Occupation            Energy/Eh            Energy/eV
      -------------------------------------------------------------
         1        2.0000           -0.3872131             -10.5366
       ...           ...                  ...                  ...
        13        2.0000           -0.2636009              -7.1729
        14        2.0000           -0.2624542              -7.1417
        15        2.0000           -0.2597958              -7.0694
        16        1.9997           -0.2579379              -7.0188
        17        1.4563           -0.2499124              -6.8005
        18        1.3695           -0.2495745              -6.7913
        19        1.1645           -0.2485716              -6.7640 (HOMO)
        20        0.0079           -0.2391647              -6.5080 (LUMO)
        21        0.0021           -0.2378990              -6.4736
        22        0.0000           -0.2314892              -6.2991
        23                         -0.2222529              -6.0478
        24                         -0.2213476              -6.0232
       ...                                ...                  ...
        48                          0.1477132               4.0195
      -------------------------------------------------------------
                  HL-Gap            0.0094069 Eh            0.2560 eV
             Fermi-level           -0.2469154 Eh           -6.7189 eV

 transition dipole moment (au) for excitation:          18          19
     X       Y       Z   
  -0.0000   0.0000   0.0000  total (au/Debye):    0.000   0.000
 dE (eV)             :    0.027
 oscillator strength :  0.57865E-18

 SCC (total)                   0 d,  0 h,  0 min,  0.059 sec
 SCC setup                      ...        0 min,  0.000 sec (  0.209%)
 Dispersion                     ...        0 min,  0.000 sec (  0.164%)
 classical contributions        ...        0 min,  0.000 sec (  0.056%)
 integral evaluation            ...        0 min,  0.002 sec (  3.500%)
 iterations                     ...        0 min,  0.051 sec ( 86.284%)
 molecular gradient             ...        0 min,  0.003 sec (  5.646%)
 printout                       ...        0 min,  0.002 sec (  4.109%)

         :::::::::::::::::::::::::::::::::::::::::::::::::::::
         ::                     SUMMARY                     ::
         :::::::::::::::::::::::::::::::::::::::::::::::::::::
         :: total energy             -13.127968854619 Eh    ::
         :: gradient norm              0.409731038246 Eh/a0 ::
         :: HOMO-LUMO gap              0.255974949459 eV    ::
         ::.................................................::
         :: SCC energy               -13.135996204398 Eh    ::
         :: -> isotropic ES            0.066038621535 Eh    ::
         :: -> anisotropic ES          0.002469876049 Eh    ::
         :: -> anisotropic XC         -0.046637935786 Eh    ::
         :: -> dispersion             -0.011653387848 Eh    ::
         :: repulsion energy           0.008224834557 Eh    ::
         :: add. restraining           0.000000000000 Eh    ::
         :: total charge              -0.000000000016 e     ::
         :::::::::::::::::::::::::::::::::::::::::::::::::::::


Property printout bound to 'properties.out'

           -------------------------------------------------
          | TOTAL ENERGY              -13.127968854619 Eh   |
          | GRADIENT NORM               0.409731038246 Eh/α |
          | HOMO-LUMO GAP               0.255974949459 eV   |
           -------------------------------------------------

------------------------------------------------------------------------
 * finished run on 2026/04/17 at 12:15:00.023     
------------------------------------------------------------------------
 total:
 * wall-time:     0 d,  0 h,  0 min,  0.070 sec
 *  cpu-time:     0 d,  0 h,  0 min,  0.070 sec
 * ratio c/w:     0.998 speedup
 SCF:
 * wall-time:     0 d,  0 h,  0 min,  0.059 sec
 *  cpu-time:     0 d,  0 h,  0 min,  0.059 sec
 * ratio c/w:     1.000 speedup


-------------------------   --------------------
FINAL SINGLE POINT ENERGY       -13.127968854620
-------------------------   --------------------


-------------
DIPOLE MOMENT
-------------
                                X             Y             Z
Total Dipole Moment    :      0.00000      -0.00000      -0.00000
                        -----------------------------------------
Magnitude (a.u.)       :      0.00000
Magnitude (Debye)      :      0.00000


------------------
CARTESIAN GRADIENT
------------------

   1   B   :   -0.070524905    0.056367980    0.000000000
   2   B   :    0.007621067   -0.118164114   -0.000000000
   3   B   :    0.005190310    0.123705446    0.000000000
   4   B   :    0.005816848   -0.122904231    0.000000000
   5   B   :    0.002707273    0.123630309   -0.000000000
   6   B   :   -0.000124781   -0.126517755   -0.000000000
   7   B   :    0.000124827    0.126517738    0.000000000
   8   B   :   -0.002707268   -0.123630277    0.000000000
   9   B   :   -0.005816931    0.122904229   -0.000000000
  10   B   :   -0.005190347   -0.123705487    0.000000000
  11   B   :   -0.007621039    0.118164163   -0.000000000
  12   B   :    0.070524945   -0.056368001   -0.000000000

Difference to translation invariance:
           :   -0.0000000000   -0.0000000000    0.0000000000

Difference to rotation invariance:
           :   -0.0000000000   -0.0000000000    0.0160186612

Norm of the Cartesian gradient     ...    0.4097310382
RMS gradient                       ...    0.0682885064
MAX gradient                       ...    0.1265177555
------------------------------------------------------------------------------
                         ORCA GEOMETRY RELAXATION STEP
------------------------------------------------------------------------------

Reading the OPT-File                    .... done
Getting information on internals        .... done
Copying old internal coords+grads       .... done
Making the new internal coordinates     .... (2022 redundants) done
Validating the new internal coordinates .... (2022 redundants) done
Calculating the B-matrix                .... done
Calculating the G,G- and P matrices     .... done
Transforming gradient to internals      .... done
Projecting the internal gradient        .... done
Number of atoms                         ....  12
Number of internal coordinates          ....  30
Current Energy                          ....   -13.127968855 Eh
Current gradient norm                   ....     0.409731038 Eh/bohr
Maximum allowed component of the step   ....  0.300
Current trust radius                    ....  0.300
Evaluating the initial hessian          ....  (Almloef) done
Projecting the Hessian                  .... done
Forming the augmented Hessian           .... done
Diagonalizing the augmented Hessian     .... done
Last element of RFO vector              ....  0.769889718
Lowest eigenvalues of augmented Hessian:
 -0.240246149  0.010000000  0.010000000  0.010000000  0.010000000
Length of the computed step             ....  0.828919957
Warning: the length of the step is outside the trust region - taking restricted step instead
The input lambda is                     ....     0.009000
   iter:   5  x=   -0.522212  g=    1.782674 f(x)=     0.314736
   iter:  10  x=   -0.856299  g=    0.185916 f(x)=     0.000001
The output lambda is                    ....    -0.856299 (12 iterations)
The final length of the internal step   ....  0.300000000
Converting the step to Cartesian space:
 Initial RMS(Int)=    0.0547722558
Transforming coordinates:
 Iter   0:  RMS(Cart)=    0.0812754127 RMS(Int)=    2.2949448753
done
Storing new coordinates                 .... done

                                .--------------------.
          ----------------------|Geometry convergence|-------------------------
          Item                value                   Tolerance       Converged
          ---------------------------------------------------------------------
          RMS gradient        0.0531572901            0.0000300000      NO
          MAX gradient        0.0903712033            0.0001000000      NO
          RMS step            0.0547722558            0.0006000000      NO
          MAX step            0.0943728333            0.0010000000      NO
          -------------------------------------------------------------------------
          ........................................................
          Max(Bonds)      0.0499      Max(Angles)    2.00
          Max(Dihed)        0.00      Max(Improp)    0.00
          ---------------------------------------------------------------------

The optimization has not yet converged - more geometry cycles are needed


    ---------------------------------------------------------------------------
                         Redundant Internal Coordinates
                            (Angstroem and degrees)

        Definition                    Value    dE/dq     Step     New-Value
    ----------------------------------------------------------------------------
     1. B(B   1,B   0)                1.9652  0.090371 -0.0499    1.9153   
     2. B(B   2,B   1)                1.9652  0.087253 -0.0482    1.9170   
     3. B(B   3,B   2)                1.9652  0.083712 -0.0463    1.9190   
     4. B(B   4,B   3)                1.9652  0.077872 -0.0430    1.9222   
     5. B(B   5,B   4)                1.9652  0.077459 -0.0428    1.9224   
     6. B(B   6,B   5)                1.9652  0.077520 -0.0428    1.9224   
     7. B(B   7,B   6)                1.9652  0.077459 -0.0428    1.9224   
     8. B(B   8,B   7)                1.9652  0.077872 -0.0430    1.9222   
     9. B(B   9,B   8)                1.9652  0.083712 -0.0463    1.9190   
    10. B(B  10,B   9)                1.9652  0.087253 -0.0482    1.9170   
    11. B(B  11,B  10)                1.9652  0.090371 -0.0499    1.9153   
    12. A(B   0,B   1,B   2)          105.47 -0.008644    0.45    105.92   
    13. A(B   1,B   2,B   3)          105.47 -0.031434    1.63    107.10   
    14. A(B   2,B   3,B   4)          105.47 -0.023283    1.21    106.68   
    15. A(B   3,B   4,B   5)          105.47 -0.038515    2.00    107.47   
    16. A(B   4,B   5,B   6)          105.47 -0.037959    1.97    107.44   
    17. A(B   5,B   6,B   7)          105.47 -0.037959    1.97    107.44   
    18. A(B   6,B   7,B   8)          105.47 -0.038515    2.00    107.47   
    19. A(B   7,B   8,B   9)          105.47 -0.023283    1.21    106.68   
    20. A(B   8,B   9,B  10)          105.47 -0.031434    1.63    107.10   
    21. A(B   9,B  10,B  11)          105.47 -0.008643    0.45    105.92   
    22. D(B   3,B   2,B   1,B   0)    180.00 -0.000000   -0.00    180.00   
    23. D(B   4,B   3,B   2,B   1)    180.00  0.000000    0.00    180.00   
    24. D(B   5,B   4,B   3,B   2)    180.00 -0.000000    0.00    180.00   
    25. D(B   6,B   5,B   4,B   3)    180.00  0.000000    0.00    180.00   
    26. D(B   7,B   6,B   5,B   4)    180.00 -0.000000   -0.00    180.00   
    27. D(B   8,B   7,B   6,B   5)    180.00  0.000000   -0.00    180.00   
    28. D(B   9,B   8,B   7,B   6)    180.00 -0.000000   -0.00    180.00   
    29. D(B  10,B   9,B   8,B   7)    180.00  0.000000    0.00    180.00   
    30. D(B  11,B  10,B   9,B   8)    180.00 -0.000000   -0.00    180.00   
    ----------------------------------------------------------------------------

Geometry step timings:
Preparation and reading OPT file:      0.000 s ( 3.201 %)
Internal coordinates            :      0.000 s ( 9.027 %)
B/P matrices and projection     :      0.000 s (24.136 %)
Hessian update/contruction      :      0.000 s (13.956 %)
Making the step                 :      0.000 s (18.758 %)
Converting the step to Cartesian:      0.000 s ( 2.561 %)
Storing new data                :      0.000 s ( 2.433 %)
Checking convergence            :      0.000 s ( 2.817 %)
Final printing                  :      0.000 s (23.047 %)
Total time                      :      0.002 s

Time for energy+gradient        :      0.080 s
Time for complete geometry iter :      0.084 s

         *************************************************************
         *                GEOMETRY OPTIMIZATION CYCLE   2            *
         *************************************************************
---------------------------------
CARTESIAN COORDINATES (ANGSTROEM)
---------------------------------
  B    -8.467772    0.602904   -0.000000
  B    -6.956810   -0.574124   -0.000000
  B    -5.409168    0.557163   -0.000000
  B    -3.871280   -0.590623    0.000000
  B    -2.327871    0.555151    0.000000
  B    -0.771494   -0.573333   -0.000000
  B     0.771494    0.573334    0.000000
  B     2.327871   -0.555151    0.000000
  B     3.871280    0.590623   -0.000000
  B     5.409168   -0.557163   -0.000000
  B     6.956810    0.574124   -0.000000
  B     8.467772   -0.602904   -0.000000

----------------------------
CARTESIAN COORDINATES (A.U.)
----------------------------
  NO LB    ZA    FRAG    MASS        X           Y           Z
   0 B   5.0000    0    10.810  -16.001770    1.139324   -0.000000
   1 B   5.0000    0    10.810  -13.146465   -1.084937   -0.000000
   2 B   5.0000    0    10.810  -10.221846    1.052885   -0.000000
   3 B   5.0000    0    10.810   -7.315659   -1.116115    0.000000
   4 B   5.0000    0    10.810   -4.399038    1.049083    0.000000
   5 B   5.0000    0    10.810   -1.457912   -1.083443   -0.000000
   6 B   5.0000    0    10.810    1.457912    1.083443    0.000000
   7 B   5.0000    0    10.810    4.399038   -1.049083    0.000000
   8 B   5.0000    0    10.810    7.315659    1.116115   -0.000000
   9 B   5.0000    0    10.810   10.221846   -1.052885   -0.000000
  10 B   5.0000    0    10.810   13.146465    1.084937   -0.000000
  11 B   5.0000    0    10.810   16.001770   -1.139324   -0.000000

      -----------------------------------------------------------      
     |                   =====================                   |     
     |                           x T B                           |     
     |                   =====================                   |     
     |                         S. Grimme                         |     
     |          Mulliken Center for Theoretical Chemistry        |     
     |                    University of Bonn                     |     
      -----------------------------------------------------------      

   * xtb version 6.6.1 (unknown) compiled by 'builduser@buildhost' on 2023-08-07

   xtb is free software: you can redistribute it and/or modify it under
   the terms of the GNU Lesser General Public License as published by
   the Free Software Foundation, either version 3 of the License, or
   (at your option) any later version.
   
   xtb is distributed in the hope that it will be useful,
   but WITHOUT ANY WARRANTY; without even the implied warranty of
   MERCHANTABILITY or FITNESS FOR A PARTICULAR PURPOSE.  See the
   GNU Lesser General Public License for more details.
   
   Cite this work as:
   * C. Bannwarth, E. Caldeweyher, S. Ehlert, A. Hansen, P. Pracht,
     J. Seibert, S. Spicher, S. Grimme, WIREs Comput. Mol. Sci., 2020, 11,
     e01493. DOI: 10.1002/wcms.1493
   
   for GFN2-xTB:
   * C. Bannwarth, S. Ehlert and S. Grimme., J. Chem. Theory Comput., 2019,
     15, 1652-1671. DOI: 10.1021/acs.jctc.8b01176
   for GFN1-xTB:
   * S. Grimme, C. Bannwarth, P. Shushkov, J. Chem. Theory Comput., 2017,
     13, 1989-2009. DOI: 10.1021/acs.jctc.7b00118
   for GFN0-xTB:
   * P. Pracht, E. Caldeweyher, S. Ehlert, S. Grimme, ChemRxiv, 2019, preprint.
     DOI: 10.26434/chemrxiv.8326202.v1
   for GFN-FF:
   * S. Spicher and S. Grimme, Angew. Chem. Int. Ed., 2020, 59, 15665-15673.
     DOI: 10.1002/anie.202004239
   
   for ALPB and GBSA implicit solvation:
   * S. Ehlert, M. Stahn, S. Spicher, S. Grimme, J. Chem. Theory Comput.,
     2021, 17, 4250-4261. DOI: 10.1021/acs.jctc.1c00471
   
   for DFT-D4:
   * E. Caldeweyher, C. Bannwarth and S. Grimme, J. Chem. Phys., 2017,
     147, 034112. DOI: 10.1063/1.4993215
   * E. Caldeweyher, S. Ehlert, A. Hansen, H. Neugebauer, S. Spicher,
     C. Bannwarth and S. Grimme, J. Chem. Phys., 2019, 150, 154122.
     DOI: 10.1063/1.5090222
   * E. Caldeweyher, J.-M. Mewes, S. Ehlert and S. Grimme, Phys. Chem. Chem. Phys.
     2020, 22, 8499-8512. DOI: 10.1039/D0CP00502A
   
   for sTDA-xTB:
   * S. Grimme and C. Bannwarth, J. Chem. Phys., 2016, 145, 054103.
     DOI: 10.1063/1.4959605
   
   in the mass-spec context:
   * V. Asgeirsson, C. Bauer and S. Grimme, Chem. Sci., 2017, 8, 4879.
     DOI: 10.1039/c7sc00601b
   * J. Koopman and S. Grimme, ACS Omega 2019, 4, 12, 15120-15133.
     DOI: 10.1021/acsomega.9b02011
   
   for metadynamics refer to:
   * S. Grimme, J. Chem. Theory Comput., 2019, 155, 2847-2862
     DOI: 10.1021/acs.jctc.9b00143
   
   for SPH calculations refer to:
   * S. Spicher and S. Grimme, J. Chem. Theory Comput., 2021, 17, 1701-1714
     DOI: 10.1021/acs.jctc.0c01306
   
   with help from (in alphabetical order)
   P. Atkinson, C. Bannwarth, F. Bohle, G. Brandenburg, E. Caldeweyher
   M. Checinski, S. Dohm, S. Ehlert, S. Ehrlich, I. Gerasimov, C. Hölzer
   A. Katbashev, J. Koopman, C. Lavigne, S. Lehtola, F. März, M. Müller,
   F. Musil, H. Neugebauer, J. Pisarek, C. Plett, P. Pracht, F. Pultar,
   J. Seibert, P. Shushkov, S. Spicher, M. Stahn, M. Steiner, T. Strunk,
   J. Stückrath, T. Rose, and J. Unsleber
   
 * started run on 2026/04/17 at 12:15:00.038     

           -------------------------------------------------
          |                Calculation Setup                |
           -------------------------------------------------

          program call               : /usr/bin/xtb zigzag_chain12_d1.70_m3_XTB.xyz --grad -c 0 -u 2 -P 1 --namespace zigzag_chain12_d1.70_m3 --input zigzag_chain12_d1.70_m3_XTB.input.tmp --acc 0.200000
          calculation namespace      : zigzag_chain12_d1.70_m3
          coordinate file            : zigzag_chain12_d1.70_m3_XTB.xyz
          omp threads                :                     1

   ID    Z sym.   atoms
    1    5 B      1-12

           -------------------------------------------------
          |                 G F N 2 - x T B                 |
           -------------------------------------------------

        Reference                      10.1021/acs.jctc.8b01176
      * Hamiltonian:
        H0-scaling (s, p, d)           1.850000    2.230000    2.230000
        zeta-weighting                 0.500000
      * Dispersion:
        s8                             2.700000
        a1                             0.520000
        a2                             5.000000
        s9                             5.000000
      * Repulsion:
        kExp                           1.500000    1.000000
        rExp                           1.000000
      * Coulomb:
        alpha                          2.000000
        third order                    shell-resolved
        anisotropic                    true
        a3                             3.000000
        a5                             4.000000
        cn-shift                       1.200000
        cn-exp                         4.000000
        max-rad                        5.000000

q/qsh data taken from xtbrestart
CAMM data taken from xtbrestart

          ...................................................
          :                      SETUP                      :
          :.................................................:
          :  # basis functions                  48          :
          :  # atomic orbitals                  48          :
          :  # shells                           24          :
          :  # electrons                        36          :
          :  max. iterations                   250          :
          :  Hamiltonian                  GFN2-xTB          :
          :  restarted?                       true          :
          :  GBSA solvation                  false          :
          :  PC potential                    false          :
          :  electronic temp.          300.0000000     K    :
          :  accuracy                    0.2000000          :
          :  -> integral cutoff          0.3198970E+02      :
          :  -> integral neglect         0.2000000E-08      :
          :  -> SCF convergence          0.2000000E-06 Eh   :
          :  -> wf. convergence          0.2000000E-04 e    :
          :  Broyden damping             0.4000000          :
          ...................................................

 iter      E             dE          RMSdq      gap      omega  full diag
   1    -13.2215514 -0.132216E+02  0.110E+00    0.21       0.0  T
   2    -12.1422174  0.107933E+01  0.518E+00    0.24       1.0  T
   3    -12.9444736 -0.802256E+00  0.272E+00    0.17       1.0  T
   4    -13.1482677 -0.203794E+00  0.188E+00    0.25       1.0  T
   5    -13.2257035 -0.774358E-01  0.445E-01    0.20       1.0  T
   6    -13.1783622  0.473412E-01  0.124E+00    0.27       1.0  T
   7    -13.2001003 -0.217380E-01  0.918E-01    0.22       1.0  T
   8    -13.2072173 -0.711700E-02  0.833E-01    0.22       1.0  T
   9    -13.2033215  0.389574E-02  0.865E-01    0.22       1.0  T
  10    -13.1999347  0.338688E-02  0.903E-01    0.22       1.0  T
  11    -13.2110768 -0.111421E-01  0.718E-01    0.22       1.0  T
  12    -13.2268844 -0.158076E-01  0.223E-01    0.22       1.0  T
  13    -13.2268105  0.739678E-04  0.210E-01    0.22       1.0  T
  14    -13.2268490 -0.385105E-04  0.203E-01    0.22       1.0  T
  15    -13.2267907  0.582804E-04  0.192E-01    0.22       1.0  T
  16    -13.2270994 -0.308666E-03  0.134E-01    0.22       1.0  T
  17    -13.2271353 -0.359753E-04  0.138E-01    0.22       1.0  T
  18    -13.2271204  0.149079E-04  0.141E-01    0.22       1.0  T
  19    -13.2271052  0.152640E-04  0.138E-01    0.22       1.0  T
  20    -13.2271147 -0.955536E-05  0.126E-01    0.22       1.0  T
  21    -13.2271528 -0.380885E-04  0.768E-02    0.22       1.0  T
  22    -13.2271643 -0.114360E-04  0.475E-02    0.22       1.0  T
  23    -13.2271746 -0.103098E-04  0.533E-03    0.22       5.4  T
  24    -13.2271749 -0.320641E-06  0.213E-03    0.22      13.6  T
  25    -13.2271749 -0.469080E-07  0.792E-04    0.22      36.5  T
  26    -13.2271749 -0.840641E-08  0.257E-04    0.22     112.3  T
  27    -13.2271749 -0.711694E-09  0.170E-04    0.22     170.1  T
  28    -13.2271749 -0.193799E-09  0.543E-05    0.22     531.6  T

   *** convergence criteria satisfied after 28 iterations ***

         #    Occupation            Energy/Eh            Energy/eV
      -------------------------------------------------------------
         1        2.0000           -0.3897463             -10.6055
       ...           ...                  ...                  ...
        13        2.0000           -0.2656658              -7.2291
        14        2.0000           -0.2605219              -7.0892
        15        2.0000           -0.2598010              -7.0695
        16        1.9997           -0.2578724              -7.0171
        17        1.6091           -0.2506606              -6.8208
        18        1.3709           -0.2497387              -6.7957
        19        1.0051           -0.2465287              -6.7084 (HOMO)
        20        0.0132           -0.2384300              -6.4880 (LUMO)
        21        0.0022           -0.2367197              -6.4415
        22        0.0000           -0.2286328              -6.2214
        23                         -0.2217837              -6.0350
        24                         -0.2179349              -5.9303
       ...                                ...                  ...
        48                          0.1898653               5.1665
      -------------------------------------------------------------
                  HL-Gap            0.0080987 Eh            0.2204 eV
             Fermi-level           -0.2463850 Eh           -6.7045 eV

 transition dipole moment (au) for excitation:          18          19
     X       Y       Z   
  -1.7592  -0.0616   0.0000  total (au/Debye):    1.760   4.474
 dE (eV)             :    0.087
 oscillator strength :  0.93773E-02

 SCC (total)                   0 d,  0 h,  0 min,  0.037 sec
 SCC setup                      ...        0 min,  0.000 sec (  0.313%)
 Dispersion                     ...        0 min,  0.000 sec (  0.275%)
 classical contributions        ...        0 min,  0.000 sec (  0.148%)
 integral evaluation            ...        0 min,  0.002 sec (  5.794%)
 iterations                     ...        0 min,  0.028 sec ( 74.632%)
 molecular gradient             ...        0 min,  0.004 sec ( 11.602%)
 printout                       ...        0 min,  0.003 sec (  7.158%)

         :::::::::::::::::::::::::::::::::::::::::::::::::::::
         ::                     SUMMARY                     ::
         :::::::::::::::::::::::::::::::::::::::::::::::::::::
         :: total energy             -13.215489110883 Eh    ::
         :: gradient norm              0.413366074708 Eh/a0 ::
         :: HOMO-LUMO gap              0.220377051313 eV    ::
         ::.................................................::
         :: SCC energy               -13.227174941844 Eh    ::
         :: -> isotropic ES            0.071616982151 Eh    ::
         :: -> anisotropic ES          0.002568776888 Eh    ::
         :: -> anisotropic XC         -0.046603752375 Eh    ::
         :: -> dispersion             -0.010158501585 Eh    ::
         :: repulsion energy           0.011850497510 Eh    ::
         :: add. restraining           0.000000000000 Eh    ::
         :: total charge              -0.000000000018 e     ::
         :::::::::::::::::::::::::::::::::::::::::::::::::::::


Property printout bound to 'properties.out'

           -------------------------------------------------
          | TOTAL ENERGY              -13.215489110883 Eh   |
          | GRADIENT NORM               0.413366074708 Eh/α |
          | HOMO-LUMO GAP               0.220377051313 eV   |
           -------------------------------------------------

------------------------------------------------------------------------
 * finished run on 2026/04/17 at 12:15:00.085     
------------------------------------------------------------------------
 total:
 * wall-time:     0 d,  0 h,  0 min,  0.048 sec
 *  cpu-time:     0 d,  0 h,  0 min,  0.048 sec
 * ratio c/w:     0.999 speedup
 SCF:
 * wall-time:     0 d,  0 h,  0 min,  0.037 sec
 *  cpu-time:     0 d,  0 h,  0 min,  0.037 sec
 * ratio c/w:     0.999 speedup


-------------------------   --------------------
FINAL SINGLE POINT ENERGY       -13.215489110880
-------------------------   --------------------


-------------
DIPOLE MOMENT
-------------
                                X             Y             Z
Total Dipole Moment    :     -0.00000      -0.00000       0.00000
                        -----------------------------------------
Magnitude (a.u.)       :      0.00000
Magnitude (Debye)      :      0.00000


------------------
CARTESIAN GRADIENT
------------------

   1   B   :   -0.072470462    0.061153299   -0.000000000
   2   B   :    0.008309843   -0.121375943    0.000000000
   3   B   :    0.006599469    0.122044441   -0.000000000
   4   B   :    0.005625232   -0.122904078    0.000000000
   5   B   :    0.000930585    0.123738183    0.000000000
   6   B   :   -0.000179909   -0.127496607   -0.000000000
   7   B   :    0.000179955    0.127496603    0.000000000
   8   B   :   -0.000930585   -0.123738190    0.000000000
   9   B   :   -0.005625267    0.122904134   -0.000000000
  10   B   :   -0.006599507   -0.122044527   -0.000000000
  11   B   :   -0.008309764    0.121375957    0.000000000
  12   B   :    0.072470411   -0.061153272    0.000000000

Difference to translation invariance:
           :   -0.0000000000    0.0000000000    0.0000000000

Difference to rotation invariance:
           :    0.0000000000   -0.0000000000   -0.0000000024

Norm of the Cartesian gradient     ...    0.4133660747
RMS gradient                       ...    0.0688943458
MAX gradient                       ...    0.1274966067
------------------------------------------------------------------------------
                         ORCA GEOMETRY RELAXATION STEP
------------------------------------------------------------------------------

Reading the OPT-File                    .... done
Getting information on internals        .... done
Copying old internal coords+grads       .... done
Making the new internal coordinates     .... (2022 redundants) done
Validating the new internal coordinates .... (2022 redundants) done
Calculating the B-matrix                .... done
Calculating the G,G- and P matrices     .... done
Transforming gradient to internals      .... done
Projecting the internal gradient        .... done
Number of atoms                         ....  12
Number of internal coordinates          ....  30
Current Energy                          ....   -13.215489111 Eh
Current gradient norm                   ....     0.413366075 Eh/bohr
Maximum allowed component of the step   ....  0.300
Current trust radius                    ....  0.300
Updating the Hessian (BFGS)             .... done
Forming the augmented Hessian           .... done
Diagonalizing the augmented Hessian     .... done
Last element of RFO vector              ....  0.769104364
Lowest eigenvalues of augmented Hessian:
 -0.243845115  0.010000000  0.010000000  0.010000000  0.010000000
Length of the computed step             ....  0.830996727
Warning: the length of the step is outside the trust region - taking restricted step instead
The input lambda is                     ....     0.009000
   iter:   5  x=   -0.524047  g=    1.822784 f(x)=     0.324189
   iter:  10  x=   -0.868470  g=    0.183643 f(x)=     0.000001
The output lambda is                    ....    -0.868470 (12 iterations)
The final length of the internal step   ....  0.300000000
Converting the step to Cartesian space:
 Initial RMS(Int)=    0.0547722558
Transforming coordinates:
 Iter   0:  RMS(Cart)=    0.0810784301 RMS(Int)=    0.0547000428
done
Storing new coordinates                 .... done
The predicted energy change is          ....    -0.083254294
Previously predicted energy change      ....    -0.082169025
Actually observed energy change         ....    -0.087520256
Ratio of predicted to observed change   ....     1.065124673
New trust radius                        ....     0.450000000

                                .--------------------.
          ----------------------|Geometry convergence|-------------------------
          Item                value                   Tolerance       Converged
          ---------------------------------------------------------------------
          Energy change      -0.0875202563            0.0000010000      NO
          RMS gradient        0.0538102999            0.0000300000      NO
          MAX gradient        0.0947520447            0.0001000000      NO
          RMS step            0.0547722558            0.0006000000      NO
          MAX step            0.0977058562            0.0010000000      NO
          -------------------------------------------------------------------------
          ........................................................
          Max(Bonds)      0.0517      Max(Angles)    2.01
          Max(Dihed)        0.00      Max(Improp)    0.00
          ---------------------------------------------------------------------

The optimization has not yet converged - more geometry cycles are needed


    ---------------------------------------------------------------------------
                         Redundant Internal Coordinates
                            (Angstroem and degrees)

        Definition                    Value    dE/dq     Step     New-Value
    ----------------------------------------------------------------------------
     1. B(B   1,B   0)                1.9153  0.094752 -0.0517    1.8636   
     2. B(B   2,B   1)                1.9170  0.087337 -0.0477    1.8694   
     3. B(B   3,B   2)                1.9190  0.083107 -0.0453    1.8736   
     4. B(B   4,B   3)                1.9222  0.078110 -0.0426    1.8796   
     5. B(B   5,B   4)                1.9224  0.078072 -0.0426    1.8798   
     6. B(B   6,B   5)                1.9224  0.079759 -0.0435    1.8789   
     7. B(B   7,B   6)                1.9224  0.078072 -0.0426    1.8798   
     8. B(B   8,B   7)                1.9222  0.078110 -0.0426    1.8796   
     9. B(B   9,B   8)                1.9190  0.083107 -0.0453    1.8736   
    10. B(B  10,B   9)                1.9170  0.087337 -0.0477    1.8694   
    11. B(B  11,B  10)                1.9153  0.094752 -0.0517    1.8636   
    12. A(B   0,B   1,B   2)          105.92 -0.013418    0.69    106.60   
    13. A(B   1,B   2,B   3)          107.10 -0.025546    1.31    108.41   
    14. A(B   2,B   3,B   4)          106.68 -0.029269    1.50    108.18   
    15. A(B   3,B   4,B   5)          107.47 -0.036433    1.87    109.34   
    16. A(B   4,B   5,B   6)          107.44 -0.039076    2.01    109.44   
    17. A(B   5,B   6,B   7)          107.44 -0.039076    2.01    109.44   
    18. A(B   6,B   7,B   8)          107.47 -0.036433    1.87    109.34   
    19. A(B   7,B   8,B   9)          106.68 -0.029269    1.50    108.18   
    20. A(B   8,B   9,B  10)          107.10 -0.025546    1.31    108.41   
    21. A(B   9,B  10,B  11)          105.92 -0.013418    0.69    106.60   
    22. D(B   3,B   2,B   1,B   0)    180.00  0.000000   -0.00    180.00   
    23. D(B   4,B   3,B   2,B   1)   -180.00 -0.000000    0.00   -180.00   
    24. D(B   5,B   4,B   3,B   2)   -180.00  0.000000    0.00   -180.00   
    25. D(B   6,B   5,B   4,B   3)   -180.00 -0.000000    0.00   -180.00   
    26. D(B   7,B   6,B   5,B   4)    180.00 -0.000000   -0.00    180.00   
    27. D(B   8,B   7,B   6,B   5)    180.00 -0.000000   -0.00    180.00   
    28. D(B   9,B   8,B   7,B   6)    180.00 -0.000000    0.00    180.00   
    29. D(B  10,B   9,B   8,B   7)   -180.00  0.000000    0.00   -180.00   
    30. D(B  11,B  10,B   9,B   8)    180.00 -0.000000   -0.00    180.00   
    ----------------------------------------------------------------------------

Geometry step timings:
Preparation and reading OPT file:      0.000 s ( 6.440 %)
Internal coordinates            :      0.000 s ( 1.420 %)
B/P matrices and projection     :      0.000 s (17.495 %)
Hessian update/contruction      :      0.001 s (25.507 %)
Making the step                 :      0.000 s (18.306 %)
Converting the step to Cartesian:      0.000 s ( 2.282 %)
Storing new data                :      0.000 s ( 2.383 %)
Checking convergence            :      0.000 s ( 3.448 %)
Final printing                  :      0.000 s (22.667 %)
Total time                      :      0.002 s

Time for energy+gradient        :      0.060 s
Time for complete geometry iter :      0.063 s

         *************************************************************
         *                GEOMETRY OPTIMIZATION CYCLE   3            *
         *************************************************************
---------------------------------
CARTESIAN COORDINATES (ANGSTROEM)
---------------------------------
  B    -8.337389    0.591059   -0.000000
  B    -6.866312   -0.553034   -0.000000
  B    -5.344847    0.533107   -0.000000
  B    -3.830341   -0.569975    0.000000
  B    -2.304993    0.528286    0.000000
  B    -0.763410   -0.547502    0.000000
  B     0.763410    0.547503    0.000000
  B     2.304993   -0.528286    0.000000
  B     3.830341    0.569975   -0.000000
  B     5.344847   -0.533107   -0.000000
  B     6.866312    0.553033   -0.000000
  B     8.337389   -0.591060   -0.000000

----------------------------
CARTESIAN COORDINATES (A.U.)
----------------------------
  NO LB    ZA    FRAG    MASS        X           Y           Z
   0 B   5.0000    0    10.810  -15.755382    1.116940   -0.000000
   1 B   5.0000    0    10.810  -12.975448   -1.045082   -0.000000
   2 B   5.0000    0    10.810  -10.100297    1.007426   -0.000000
   3 B   5.0000    0    10.810   -7.238296   -1.077097    0.000000
   4 B   5.0000    0    10.810   -4.355806    0.998316    0.000000
   5 B   5.0000    0    10.810   -1.442636   -1.034630    0.000000
   6 B   5.0000    0    10.810    1.442636    1.034630    0.000000
   7 B   5.0000    0    10.810    4.355806   -0.998316    0.000000
   8 B   5.0000    0    10.810    7.238296    1.077097   -0.000000
   9 B   5.0000    0    10.810   10.100297   -1.007426   -0.000000
  10 B   5.0000    0    10.810   12.975449    1.045082   -0.000000
  11 B   5.0000    0    10.810   15.755382   -1.116941   -0.000000

      -----------------------------------------------------------      
     |                   =====================                   |     
     |                           x T B                           |     
     |                   =====================                   |     
     |                         S. Grimme                         |     
     |          Mulliken Center for Theoretical Chemistry        |     
     |                    University of Bonn                     |     
      -----------------------------------------------------------      

   * xtb version 6.6.1 (unknown) compiled by 'builduser@buildhost' on 2023-08-07

   xtb is free software: you can redistribute it and/or modify it under
   the terms of the GNU Lesser General Public License as published by
   the Free Software Foundation, either version 3 of the License, or
   (at your option) any later version.
   
   xtb is distributed in the hope that it will be useful,
   but WITHOUT ANY WARRANTY; without even the implied warranty of
   MERCHANTABILITY or FITNESS FOR A PARTICULAR PURPOSE.  See the
   GNU Lesser General Public License for more details.
   
   Cite this work as:
   * C. Bannwarth, E. Caldeweyher, S. Ehlert, A. Hansen, P. Pracht,
     J. Seibert, S. Spicher, S. Grimme, WIREs Comput. Mol. Sci., 2020, 11,
     e01493. DOI: 10.1002/wcms.1493
   
   for GFN2-xTB:
   * C. Bannwarth, S. Ehlert and S. Grimme., J. Chem. Theory Comput., 2019,
     15, 1652-1671. DOI: 10.1021/acs.jctc.8b01176
   for GFN1-xTB:
   * S. Grimme, C. Bannwarth, P. Shushkov, J. Chem. Theory Comput., 2017,
     13, 1989-2009. DOI: 10.1021/acs.jctc.7b00118
   for GFN0-xTB:
   * P. Pracht, E. Caldeweyher, S. Ehlert, S. Grimme, ChemRxiv, 2019, preprint.
     DOI: 10.26434/chemrxiv.8326202.v1
   for GFN-FF:
   * S. Spicher and S. Grimme, Angew. Chem. Int. Ed., 2020, 59, 15665-15673.
     DOI: 10.1002/anie.202004239
   
   for ALPB and GBSA implicit solvation:
   * S. Ehlert, M. Stahn, S. Spicher, S. Grimme, J. Chem. Theory Comput.,
     2021, 17, 4250-4261. DOI: 10.1021/acs.jctc.1c00471
   
   for DFT-D4:
   * E. Caldeweyher, C. Bannwarth and S. Grimme, J. Chem. Phys., 2017,
     147, 034112. DOI: 10.1063/1.4993215
   * E. Caldeweyher, S. Ehlert, A. Hansen, H. Neugebauer, S. Spicher,
     C. Bannwarth and S. Grimme, J. Chem. Phys., 2019, 150, 154122.
     DOI: 10.1063/1.5090222
   * E. Caldeweyher, J.-M. Mewes, S. Ehlert and S. Grimme, Phys. Chem. Chem. Phys.
     2020, 22, 8499-8512. DOI: 10.1039/D0CP00502A
   
   for sTDA-xTB:
   * S. Grimme and C. Bannwarth, J. Chem. Phys., 2016, 145, 054103.
     DOI: 10.1063/1.4959605
   
   in the mass-spec context:
   * V. Asgeirsson, C. Bauer and S. Grimme, Chem. Sci., 2017, 8, 4879.
     DOI: 10.1039/c7sc00601b
   * J. Koopman and S. Grimme, ACS Omega 2019, 4, 12, 15120-15133.
     DOI: 10.1021/acsomega.9b02011
   
   for metadynamics refer to:
   * S. Grimme, J. Chem. Theory Comput., 2019, 155, 2847-2862
     DOI: 10.1021/acs.jctc.9b00143
   
   for SPH calculations refer to:
   * S. Spicher and S. Grimme, J. Chem. Theory Comput., 2021, 17, 1701-1714
     DOI: 10.1021/acs.jctc.0c01306
   
   with help from (in alphabetical order)
   P. Atkinson, C. Bannwarth, F. Bohle, G. Brandenburg, E. Caldeweyher
   M. Checinski, S. Dohm, S. Ehlert, S. Ehrlich, I. Gerasimov, C. Hölzer
   A. Katbashev, J. Koopman, C. Lavigne, S. Lehtola, F. März, M. Müller,
   F. Musil, H. Neugebauer, J. Pisarek, C. Plett, P. Pracht, F. Pultar,
   J. Seibert, P. Shushkov, S. Spicher, M. Stahn, M. Steiner, T. Strunk,
   J. Stückrath, T. Rose, and J. Unsleber
   
 * started run on 2026/04/17 at 12:15:00.099     

           -------------------------------------------------
          |                Calculation Setup                |
           -------------------------------------------------

          program call               : /usr/bin/xtb zigzag_chain12_d1.70_m3_XTB.xyz --grad -c 0 -u 2 -P 1 --namespace zigzag_chain12_d1.70_m3 --input zigzag_chain12_d1.70_m3_XTB.input.tmp --acc 0.200000
          calculation namespace      : zigzag_chain12_d1.70_m3
          coordinate file            : zigzag_chain12_d1.70_m3_XTB.xyz
          omp threads                :                     1

   ID    Z sym.   atoms
    1    5 B      1-12

           -------------------------------------------------
          |                 G F N 2 - x T B                 |
           -------------------------------------------------

        Reference                      10.1021/acs.jctc.8b01176
      * Hamiltonian:
        H0-scaling (s, p, d)           1.850000    2.230000    2.230000
        zeta-weighting                 0.500000
      * Dispersion:
        s8                             2.700000
        a1                             0.520000
        a2                             5.000000
        s9                             5.000000
      * Repulsion:
        kExp                           1.500000    1.000000
        rExp                           1.000000
      * Coulomb:
        alpha                          2.000000
        third order                    shell-resolved
        anisotropic                    true
        a3                             3.000000
        a5                             4.000000
        cn-shift                       1.200000
        cn-exp                         4.000000
        max-rad                        5.000000

q/qsh data taken from xtbrestart
CAMM data taken from xtbrestart

          ...................................................
          :                      SETUP                      :
          :.................................................:
          :  # basis functions                  48          :
          :  # atomic orbitals                  48          :
          :  # shells                           24          :
          :  # electrons                        36          :
          :  max. iterations                   250          :
          :  Hamiltonian                  GFN2-xTB          :
          :  restarted?                       true          :
          :  GBSA solvation                  false          :
          :  PC potential                    false          :
          :  electronic temp.          300.0000000     K    :
          :  accuracy                    0.2000000          :
          :  -> integral cutoff          0.3198970E+02      :
          :  -> integral neglect         0.2000000E-08      :
          :  -> SCF convergence          0.2000000E-06 Eh   :
          :  -> wf. convergence          0.2000000E-04 e    :
          :  Broyden damping             0.4000000          :
          ...................................................

 iter      E             dE          RMSdq      gap      omega  full diag
   1    -13.3155546 -0.133156E+02  0.953E-01    0.14       0.0  T
   2    -12.1099601  0.120559E+01  0.548E+00    0.16       1.0  T
   3    -13.2494286 -0.113947E+01  0.151E+00    0.10       1.0  T
   4    -13.2309350  0.184936E-01  0.203E+00    0.18       1.0  T
   5    -13.2365804 -0.564540E-02  0.164E+00    0.13       1.0  T
   6    -13.2325422  0.403825E-02  0.159E+00    0.20       1.0  T
   7    -13.2855707 -0.530285E-01  0.964E-01    0.15       1.0  T
   8    -13.3088487 -0.232780E-01  0.673E-01    0.14       1.0  T
   9    -13.3169535 -0.810485E-02  0.391E-01    0.15       1.0  T
  10    -13.3160058  0.947756E-03  0.417E-01    0.15       1.0  T
  11    -13.3187703 -0.276449E-02  0.309E-01    0.14       1.0  T
  12    -13.3210048 -0.223456E-02  0.889E-02    0.14       1.0  T
  13    -13.3204462  0.558576E-03  0.151E-01    0.14       1.0  T
  14    -13.3212009 -0.754701E-03  0.653E-02    0.14       1.0  T
  15    -13.3212407 -0.397411E-04  0.563E-02    0.14       1.0  T
  16    -13.3212459 -0.524696E-05  0.489E-02    0.14       1.0  T
  17    -13.3212478 -0.188190E-05  0.451E-02    0.14       1.0  T
  18    -13.3212488 -0.959678E-06  0.387E-02    0.14       1.0  T
  19    -13.3212550 -0.624679E-05  0.187E-02    0.14       1.5  T
  20    -13.3212554 -0.423526E-06  0.143E-02    0.14       2.0  T
  21    -13.3212568 -0.137198E-05  0.548E-03    0.14       5.3  T
  22    -13.3212569 -0.135469E-06  0.586E-03    0.14       4.9  T
  23    -13.3212571 -0.141260E-06  0.831E-04    0.14      34.8  T
  24    -13.3212571 -0.163881E-07  0.623E-04    0.14      46.3  T
  25    -13.3212571 -0.263985E-08  0.499E-05    0.14     578.2  T
  26    -13.3212571 -0.789058E-11  0.359E-05    0.14     803.1  T

   *** convergence criteria satisfied after 26 iterations ***

         #    Occupation            Energy/Eh            Energy/eV
      -------------------------------------------------------------
         1        2.0000           -0.3923353             -10.6760
       ...           ...                  ...                  ...
        13        2.0000           -0.2681890              -7.2978
        14        2.0000           -0.2620293              -7.1302
        15        1.9997           -0.2587819              -7.0418
        16        1.9954           -0.2560375              -6.9671
        17        1.7781           -0.2521294              -6.8608
        18        1.2251           -0.2497642              -6.7964
        19        0.9435           -0.2446550              -6.6574 (HOMO)
        20        0.0578           -0.2393506              -6.5131 (LUMO)
        21        0.0003           -0.2344162              -6.3788
        22                         -0.2257830              -6.1439
        23                         -0.2215976              -6.0300
        24                         -0.2145285              -5.8376
       ...                                ...                  ...
        48                          0.2398936               6.5278
      -------------------------------------------------------------
                  HL-Gap            0.0053044 Eh            0.1443 eV
             Fermi-level           -0.2464701 Eh           -6.7068 eV

 transition dipole moment (au) for excitation:          18          19
     X       Y       Z   
  -2.2599  -0.0352   0.0000  total (au/Debye):    2.260   5.745
 dE (eV)             :    0.139
 oscillator strength :  0.24608E-01

 SCC (total)                   0 d,  0 h,  0 min,  0.031 sec
 SCC setup                      ...        0 min,  0.000 sec (  0.469%)
 Dispersion                     ...        0 min,  0.000 sec (  0.255%)
 classical contributions        ...        0 min,  0.000 sec (  0.088%)
 integral evaluation            ...        0 min,  0.002 sec (  5.349%)
 iterations                     ...        0 min,  0.022 sec ( 69.875%)
 molecular gradient             ...        0 min,  0.004 sec ( 13.470%)
 printout                       ...        0 min,  0.003 sec ( 10.433%)

         :::::::::::::::::::::::::::::::::::::::::::::::::::::
         ::                     SUMMARY                     ::
         :::::::::::::::::::::::::::::::::::::::::::::::::::::
         :: total energy             -13.304383406718 Eh    ::
         :: gradient norm              0.415126719175 Eh/a0 ::
         :: HOMO-LUMO gap              0.144340533136 eV    ::
         ::.................................................::
         :: SCC energy               -13.321257101060 Eh    ::
         :: -> isotropic ES            0.076513229696 Eh    ::
         :: -> anisotropic ES          0.002571076336 Eh    ::
         :: -> anisotropic XC         -0.046013020944 Eh    ::
         :: -> dispersion             -0.009543684133 Eh    ::
         :: repulsion energy           0.017026683198 Eh    ::
         :: add. restraining           0.000000000000 Eh    ::
         :: total charge              -0.000000000001 e     ::
         :::::::::::::::::::::::::::::::::::::::::::::::::::::


Property printout bound to 'properties.out'

           -------------------------------------------------
          | TOTAL ENERGY              -13.304383406718 Eh   |
          | GRADIENT NORM               0.415126719175 Eh/α |
          | HOMO-LUMO GAP               0.144340533136 eV   |
           -------------------------------------------------

------------------------------------------------------------------------
 * finished run on 2026/04/17 at 12:15:00.141     
------------------------------------------------------------------------
[...]

         #    Occupation            Energy/Eh            Energy/eV
      -------------------------------------------------------------
         1        2.0000           -0.4099791             -11.1561
       ...           ...                  ...                  ...
        13        2.0000           -0.2811471              -7.6504
        14        2.0000           -0.2800335              -7.6201
        15        2.0000           -0.2765393              -7.5250
        16        2.0000           -0.2638187              -7.1789
        17        2.0000           -0.2635642              -7.1719
        18        1.0000           -0.2270480              -6.1783
        19        0.8984           -0.2047840              -5.5725 (HOMO)
        20        0.1016           -0.2006422              -5.4598 (LUMO)
        21        0.0000           -0.1913132              -5.2059
        22        0.0000           -0.1910244              -5.1980
        23                         -0.1835336              -4.9942
        24                         -0.1713170              -4.6618
       ...                                ...                  ...
        48                          1.2583818              34.2423
      -------------------------------------------------------------
                  HL-Gap            0.0041419 Eh            0.1127 eV
             Fermi-level           -0.2238747 Eh           -6.0919 eV

 transition dipole moment (au) for excitation:          18          19
     X       Y       Z   
  -0.0392  -0.0043   0.0012  total (au/Debye):    0.039   0.100
 dE (eV)             :    0.606
 oscillator strength :  0.32657E-04

 SCC (total)                   0 d,  0 h,  0 min,  0.030 sec
 SCC setup                      ...        0 min,  0.000 sec (  0.585%)
 Dispersion                     ...        0 min,  0.000 sec (  0.314%)
 classical contributions        ...        0 min,  0.000 sec (  0.121%)
 integral evaluation            ...        0 min,  0.002 sec (  7.674%)
 iterations                     ...        0 min,  0.019 sec ( 62.562%)
 molecular gradient             ...        0 min,  0.005 sec ( 16.710%)
 printout                       ...        0 min,  0.004 sec ( 11.958%)

         :::::::::::::::::::::::::::::::::::::::::::::::::::::
         ::                     SUMMARY                     ::
         :::::::::::::::::::::::::::::::::::::::::::::::::::::
         :: total energy             -14.070103830894 Eh    ::
         :: gradient norm              0.008828072444 Eh/a0 ::
         :: HOMO-LUMO gap              0.112706075064 eV    ::
         ::.................................................::
         :: SCC energy               -14.346984255180 Eh    ::
         :: -> isotropic ES            0.111843541710 Eh    ::
         :: -> anisotropic ES          0.001834210281 Eh    ::
         :: -> anisotropic XC         -0.031576939199 Eh    ::
         :: -> dispersion             -0.007808823721 Eh    ::
         :: repulsion energy           0.276964041568 Eh    ::
         :: add. restraining           0.000000000000 Eh    ::
         :: total charge               0.000000000089 e     ::
         :::::::::::::::::::::::::::::::::::::::::::::::::::::


Property printout bound to 'properties.out'

           -------------------------------------------------
          | TOTAL ENERGY              -14.070103830894 Eh   |
          | GRADIENT NORM               0.008828072444 Eh/α |
          | HOMO-LUMO GAP               0.112706075064 eV   |
           -------------------------------------------------

------------------------------------------------------------------------
 * finished run on 2026/04/17 at 12:15:03.717     
------------------------------------------------------------------------
 total:
 * wall-time:     0 d,  0 h,  0 min,  0.043 sec
 *  cpu-time:     0 d,  0 h,  0 min,  0.043 sec
 * ratio c/w:     0.999 speedup
 SCF:
 * wall-time:     0 d,  0 h,  0 min,  0.030 sec
 *  cpu-time:     0 d,  0 h,  0 min,  0.030 sec
 * ratio c/w:     1.000 speedup


-------------------------   --------------------
FINAL SINGLE POINT ENERGY       -14.070103830890
-------------------------   --------------------


-------------
DIPOLE MOMENT
-------------
                                X             Y             Z
Total Dipole Moment    :      0.00800      -0.01300       0.00400
                        -----------------------------------------
Magnitude (a.u.)       :      0.01578
Magnitude (Debye)      :      0.04011


------------------
CARTESIAN GRADIENT
------------------

   1   B   :   -0.000040034    0.000557621   -0.000292115
   2   B   :   -0.000411753    0.000116907   -0.000151576
   3   B   :    0.002639341   -0.000085852    0.001383981
   4   B   :   -0.000962972   -0.000175255   -0.001073578
   5   B   :   -0.004125536   -0.001742733   -0.000154247
   6   B   :    0.001822579   -0.001565141   -0.000376694
   7   B   :   -0.001943112    0.001706918    0.000629640
   8   B   :    0.004339768    0.001331690   -0.000162788
   9   B   :    0.000859416    0.000320398    0.001219813
  10   B   :   -0.002508807    0.000156994   -0.001258002
  11   B   :    0.000712560    0.000325459   -0.000475327
  12   B   :   -0.000381450   -0.000947006    0.000710892

Difference to translation invariance:
           :    0.0000000000    0.0000000000    0.0000000000

Difference to rotation invariance:
           :   -0.0000000019    0.0000000165    0.0000000301

Norm of the Cartesian gradient     ...    0.0088280724
RMS gradient                       ...    0.0014713454
MAX gradient                       ...    0.0043397676
------------------------------------------------------------------------------
                         ORCA GEOMETRY RELAXATION STEP
------------------------------------------------------------------------------

Reading the OPT-File                    .... done
Getting information on internals        .... done
Copying old internal coords+grads       .... done
Making the new internal coordinates     .... (2022 redundants) done
Validating the new internal coordinates .... (2022 redundants) done
Calculating the B-matrix                .... done
Calculating the G,G- and P matrices     .... done
Transforming gradient to internals      .... done
Projecting the internal gradient        .... done
Number of atoms                         ....  12
Number of internal coordinates          ....  67
Current Energy                          ....   -14.070103831 Eh
Current gradient norm                   ....     0.008828072 Eh/bohr
Maximum allowed component of the step   ....  0.300
Current trust radius                    ....  0.450
Updating the Hessian (BFGS)             .... done
Forming the augmented Hessian           .... done
Diagonalizing the augmented Hessian     .... done
Last element of RFO vector              ....  0.994938714
Lowest eigenvalues of augmented Hessian:
 -0.000214417  0.007462567  0.010000101  0.010060404  0.010751889
Length of the computed step             ....  0.100994768
The final length of the internal step   ....  0.100994768
Converting the step to Cartesian space:
 Initial RMS(Int)=    0.0123384747
Transforming coordinates:
 Iter   0:  RMS(Cart)=    0.0193756171 RMS(Int)=    0.0123608748
 Iter   5:  RMS(Cart)=    0.0000001014 RMS(Int)=    0.0000000715
done
Storing new coordinates                 .... done
The predicted energy change is          ....    -0.000108302
Previously predicted energy change      ....    -0.000576618
Actually observed energy change         ....    -0.000656948
Ratio of predicted to observed change   ....     1.139312573
New trust radius                        ....     0.675000000

                                .--------------------.
          ----------------------|Geometry convergence|-------------------------
          Item                value                   Tolerance       Converged
          ---------------------------------------------------------------------
          Energy change      -0.0006569481            0.0000010000      NO
          RMS gradient        0.0008519202            0.0000300000      NO
          MAX gradient        0.0023061403            0.0001000000      NO
          RMS step            0.0123384747            0.0006000000      NO
          MAX step            0.0416492271            0.0010000000      NO
          -------------------------------------------------------------------------
          ........................................................
          Max(Bonds)      0.0090      Max(Angles)    0.67
          Max(Dihed)        2.39      Max(Improp)    0.00
          ---------------------------------------------------------------------

The optimization has not yet converged - more geometry cycles are needed


    ---------------------------------------------------------------------------
                         Redundant Internal Coordinates
                            (Angstroem and degrees)

        Definition                    Value    dE/dq     Step     New-Value
    ----------------------------------------------------------------------------
     1. B(B   1,B   0)                1.4367  0.000109  0.0002    1.4369   
     2. B(B   2,B   1)                1.5943  0.000201 -0.0025    1.5917   
     3. B(B   2,B   0)                1.5985  0.000173 -0.0034    1.5951   
     4. B(B   3,B   2)                1.5540 -0.002306  0.0019    1.5559   
     5. B(B   4,B   3)                1.5116 -0.001265 -0.0009    1.5108   
     6. B(B   5,B   4)                1.5646  0.002105  0.0003    1.5648   
     7. B(B   6,B   4)                1.6334 -0.000384 -0.0011    1.6322   
     8. B(B   6,B   5)                1.6315 -0.000726  0.0090    1.6405   
     9. B(B   7,B   6)                1.5658  0.002239 -0.0002    1.5656   
    10. B(B   7,B   5)                1.6338 -0.000307 -0.0005    1.6333   
    11. B(B   8,B   7)                1.5120 -0.001305 -0.0007    1.5112   
    12. B(B   9,B   8)                1.5539 -0.002274  0.0019    1.5558   
    13. B(B  10,B   9)                1.5956  0.000475 -0.0024    1.5932   
    14. B(B  11,B  10)                1.4374  0.000658 -0.0000    1.4374   
    15. B(B  11,B   9)                1.5971 -0.000083 -0.0035    1.5936   
    16. A(B   1,B   0,B   2)           63.11  0.000020   -0.03     63.08   
    17. A(B   0,B   1,B   2)           63.41  0.000002   -0.09     63.32   
    18. A(B   1,B   2,B   3)          156.91  0.001358   -0.56    156.35   
    19. A(B   0,B   2,B   1)           53.49 -0.000022    0.11     53.60   
    20. A(B   0,B   2,B   3)          149.36 -0.001288    0.58    149.94   
    21. L(B   2,B   3,B   4,B   6, 2) 180.32 -0.000061   -0.00    180.31   
    22. L(B   2,B   3,B   4,B   6, 1) 177.01  0.001046   -0.53    176.48   
    23. A(B   5,B   4,B   6)           61.31 -0.000587    0.38     61.68   
    24. A(B   3,B   4,B   6)          113.01  0.001726   -0.50    112.51   
    25. A(B   3,B   4,B   5)          174.29  0.001143   -0.12    174.17   
    26. A(B   6,B   5,B   7)           57.31  0.001010   -0.16     57.15   
    27. A(B   4,B   5,B   7)          118.73  0.000623   -0.41    118.32   
    28. A(B   4,B   5,B   6)           61.42 -0.000386   -0.25     61.17   
    29. A(B   4,B   6,B   7)          118.69  0.000592   -0.35    118.34   
    30. A(B   4,B   6,B   5)           57.27  0.000974   -0.12     57.15   
    31. A(B   5,B   6,B   7)           61.42 -0.000382   -0.22     61.20   
    32. A(B   6,B   7,B   8)          175.35  0.000790   -0.03    175.32   
    33. A(B   5,B   7,B   8)          114.16  0.001404   -0.41    113.75   
    34. A(B   5,B   7,B   6)           61.27 -0.000628    0.37     61.64   
    35. L(B   7,B   8,B   9,B   5, 2) 179.61  0.000198   -0.02    179.59   
    36. L(B   7,B   8,B   9,B   5, 1) 177.47  0.000989   -0.57    176.89   
    37. A(B  10,B   9,B  11)           53.52  0.000179    0.10     53.62   
    38. A(B   8,B   9,B  11)          148.79 -0.001569    0.67    149.46   
    39. A(B   8,B   9,B  10)          157.39  0.001443   -0.61    156.77   
    40. A(B   9,B  10,B  11)           63.29 -0.000273   -0.09     63.20   
    41. A(B   9,B  11,B  10)           63.19  0.000094   -0.01     63.18   
    42. D(B   3,B   2,B   0,B   1)   -174.78 -0.000742   -0.73   -175.50   
    43. D(B   3,B   2,B   1,B   0)    173.20  0.000328    1.52    174.72   
    44. D(B   5,B   4,B   2,B   1)     71.33  0.000420   -1.17     70.17   
    45. D(B   6,B   4,B   2,B   0)   -117.23 -0.000511    2.15   -115.08   
    46. D(B   6,B   4,B   2,B   1)     68.25  0.000322   -0.83     67.42   
    47. D(B   5,B   4,B   2,B   0)   -114.15 -0.000412    1.81   -112.34   
    48. D(B   6,B   5,B   4,B   3)     -5.07 -0.000032    0.29     -4.78   
    49. D(B   7,B   5,B   4,B   6)      0.25  0.000027   -0.01      0.23   
    50. D(B   7,B   5,B   4,B   3)     -4.83 -0.000005    0.28     -4.55   
    51. D(B   7,B   6,B   5,B   4)    179.74 -0.000023    0.02    179.76   
    52. D(B   4,B   6,B   5,B   7)   -179.74  0.000023   -0.02   -179.76   
    53. D(B   7,B   6,B   4,B   5)     -0.26 -0.000024    0.03     -0.23   
    54. D(B   7,B   6,B   4,B   3)    179.20  0.000075    0.06    179.26   
    55. D(B   5,B   6,B   4,B   3)    179.45  0.000099    0.03    179.48   
    56. D(B   6,B   7,B   5,B   4)     -0.26 -0.000024    0.03     -0.22   
    57. D(B   8,B   7,B   6,B   5)     10.67 -0.000061   -0.26     10.41   
    58. D(B   8,B   7,B   6,B   4)     10.92 -0.000034   -0.27     10.64   
    59. D(B   5,B   7,B   6,B   4)      0.25  0.000027   -0.01      0.23   
    60. D(B   8,B   7,B   5,B   6)   -179.06 -0.000155   -0.02   -179.08   
    61. D(B   8,B   7,B   5,B   4)   -179.31 -0.000179    0.01   -179.31   
    62. D(B  11,B   9,B   7,B   6)    107.43  0.000316   -1.78    105.65   
    63. D(B  11,B   9,B   7,B   5)    116.56  0.000622   -2.39    114.17   
    64. D(B  10,B   9,B   7,B   6)    -79.72 -0.000533    1.53    -78.18   
    65. D(B  10,B   9,B   7,B   5)    -70.58 -0.000227    0.92    -69.66   
    66. D(B  11,B  10,B   9,B   8)   -172.30 -0.000261   -1.73   -174.03   
    67. D(B  10,B  11,B   9,B   8)    174.30  0.000798    0.75    175.05   
    ----------------------------------------------------------------------------

Geometry step timings:
Preparation and reading OPT file:      0.000 s ( 1.191 %)
Internal coordinates            :      0.000 s ( 1.935 %)
B/P matrices and projection     :      0.001 s (24.637 %)
Hessian update/contruction      :      0.000 s (18.013 %)
Making the step                 :      0.001 s (22.851 %)
Converting the step to Cartesian:      0.000 s ( 3.796 %)
Storing new data                :      0.000 s ( 1.935 %)
Checking convergence            :      0.000 s ( 2.084 %)
Final printing                  :      0.001 s (23.521 %)
Total time                      :      0.003 s

Time for energy+gradient        :      0.068 s
Time for complete geometry iter :      0.072 s




    ----------------------------------------------------------------------------
                                  WARNING !!!
       The optimization did not converge but reached the maximum number of
       optimization cycles.
       Please check your results very carefully.
    ----------------------------------------------------------------------------



--------------------------------
SUGGESTED CITATIONS FOR THIS RUN
--------------------------------

Below you find a list of papers that are relevant to this ORCA run
We neither can nor want to force you to cite these papers, but we appreciate if you do
You receive ORCA, which is the product of decades of hard work by many enthusiastic individuals, for free
The only thing we kindly ask in return is that you cite our papers,
We deeply appreciate it, if you show your appreciation for ORCA by not just citing the generic ORCA reference.

Please note that relegating all ORCA citations to the supporting information does *not* help us.
SI sections are not indexed - citations you put there will not count into any citation statistics
But we need these citations in order to attract the funding resources that allow us to do what we are doing

Therefore, if you are a happy ORCA user, please consider citing a few of the papers listed below in the main body of your paper

In addition to the list printed below, the program has created the file zigzag_chain12_d1.70_m3.bibtex that contains the list in bibtex format
You can import this file easily into all common literature databanks and citation aid programs

It goes without saying that in many instances, there are alternative algorithms to achieve similar
results as the ones you have gotten from ORCA. It is, of course, also the case that in some instances
ORCA just re-implements algorithms worked out by others. We are fully aware of that and we are also
fully appreciative of our colleagues work. Hence this citation list should not be read as indicating
that the listed papers, which are focused on our own work, are the only ones worth citing. It simply
meant to make it easier for users to cite ORCA specific papers. It is not a substitute for doing your
own literature research and citing the relevant literature in a scientifically appropriate manner.

List of essential papers. We consider these as the minimum necessary citations

  1. Bannwarth, C.; Ehlert, S.; Grimme, S.
     GFN2-xTB—An Accurate and Broadly Parametrized Self-Consistent Tight-Binding Quantum Chemical Method with Multipole Electrostatics and Density-Dependent Dispersion Contributions
     J. Chem. Theory Comput. 2019 15(3), 1652-1671
     doi.org/10.1021/acs.jctc.8b01176
  2. Neese, F.
     Software update: the ORCA program system, version 6.0
     WIRES Comput. Molec. Sci. 2025 15(1), e70019
     doi.org/10.1002/wcms.70019

List of papers to cite with high priority. The work reported in these papers was absolutely
necessary for this run to complete.
Our perspective: the developers of density functionals and basis sets usually get cited in chemistry papers
Good! But without the algorithms to do something with them, the functionals or basis sets would not do anything.
Hence, in our opinion, the algorithm design and method developments papers are equally worthy of getting cited

  1. Bannwarth, C.; Caldeweyher, E.; Ehlert, S.; Hansen, A.; Pracht, P.; Seibert, J.; Spicher, S.; Grimme, S.
     Extended tight-binding quantum chemistry methods
     WIRES Comput. Molec. Sci. 2020 11(2), e1493
     doi.org/10.1002/wcms.1493

List of suggested additional citations. These are papers that are important in the 'surrounding' of 
of this run, or papers that preceded the highly important papers. If you like your results we are grateful for a citation.

  1. Neese, F.
     The ORCA program system
     WIRES Comput. Molec. Sci. 2012 2(1), 73-78
     doi.org/10.1002/wcms.81
  2. Neese, F.
     Software update: the ORCA program system, version 4.0
     WIRES Comput. Molec. Sci. 2018 8(1), 1-6
     doi.org/10.1002/wcms.1327
  3. Neese, F.; Wennmohs, F.; Becker, U.; Riplinger, C.
     The ORCA quantum chemistry program package
     J. Chem. Phys. 2020 152(22), 224108
     doi.org/10.1063/5.0004608
  4. Neese, F.
     Software update: The ORCA program system—Version 5.0
     WIRES Comput. Molec. Sci. 2022 12(1), e1606
     doi.org/10.1002/wcms.1606

List of optional additional citations

  1. Neese, F.
     Approximate second-order SCF convergence for spin unrestricted wavefunctions
     Chem. Phys. Lett. 2000 325(1-3), 93-98
     doi.org/10.1016/s0009-2614(00)00662-x

Timings for individual modules:

Sum of individual times          ...        3.328 sec (=   0.055 min)
Geometry relaxation              ...        0.392 sec (=   0.007 min)  11.8 %
XTB module                       ...        2.936 sec (=   0.049 min)  88.2 %
                             ****ORCA TERMINATED NORMALLY****
TOTAL RUN TIME: 0 days 0 hours 0 minutes 3 seconds 919 msec
