
                                 *****************
                                 * O   R   C   A *
                                 *****************

                                            #,                                       
                                            ###                                      
                                            ####                                     
                                            #####                                    
                                            ######                                   
                                           ########,                                 
                                     ,,################,,,,,                         
                               ,,#################################,,                 
                          ,,##########################################,,             
                       ,#########################################, ''#####,          
                    ,#############################################,,   '####,        
                  ,##################################################,,,,####,       
                ,###########''''           ''''###############################       
              ,#####''   ,,,,##########,,,,          '''####'''          '####       
            ,##' ,,,,###########################,,,                        '##       
           ' ,,###''''                  '''############,,,                           
         ,,##''                                '''############,,,,        ,,,,,,###''
      ,#''                                            '''#######################'''  
     '                                                          ''''####''''         
             ,#######,   #######,   ,#######,      ##                                
            ,#'     '#,  ##    ##  ,#'     '#,    #''#        ,####,    ,#,          
            ##       ##  ##   ,#'  ##            #'  '#       #'       ,# #          
            ##       ##  #######   ##           ,######,      #####,      #          
            '#,     ,#'  ##    ##  '#,     ,#' ,#      #,     #,   #      #          
             '#######'   ##     ##  '#######'  #'      '#     '####' #    #          



                #########################################################
                #                        -***-                          #
                #          Department of theory and spectroscopy        #
                #                                                       #
                #                      Frank Neese                      #
                #                                                       #
                #     Directorship, Architecture, Infrastructure        #
                #                    SHARK, DRIVERS                     #
                #        Core code/Algorithms in most modules           #
                #                                                       #
                #        Max Planck Institute fuer Kohlenforschung      #
                #                Kaiser Wilhelm Platz 1                 #
                #                 D-45470 Muelheim/Ruhr                 #
                #                      Germany                          #
                #                                                       #
                #                  All rights reserved                  #
                #                        -***-                          #
                #########################################################


                         Program Version 6.1.1  -  RELEASE   -
                                (GIT: $487d211c$)
                          ($2025-11-21 10:33:24 +0100$)
                                                                         
                                  - NO-DMRG VERSION -                    
                                                                         


 With contributions from (in alphabetic order):
[Max-Planck-Institut fuer Kohlenforschung]                               
  Daniel Aravena         : Magnetic Suceptibility                        
  Michael Atanasov       : Ab Initio Ligand Field Theory (pilot matlab implementation)
  Alexander A. Auer      : GIAO ZORA, VPT2 properties, NMR spectrum      
  Ute Becker             : All parallelization in ORCA, NUMFREQ, NUMCALC 
  Giovanni Bistoni       : ED, misc. LED, open-shell LED, HFLD           
  Dmytro Bykov           : pre 5.0 version of the SCF Hessian            
  Marcos Casanova-Páez   : Triplet and SCS-CIS(D). UHF-(DLPNO)-IP/EA/STEOM-CCSD. UHF-CVS-IP/STEOM-CCSD   
  Vijay G. Chilkuri      : MRCI spin determinant printing, contributions to CSF-ICE 
  Pauline Colinet        : FMM embedding                                 
  Dipayan Datta          : RHF DLPNO-CCSD density                        
  Achintya Kumar Dutta   : EOM-CC, STEOM-CC                              
  Nicolas Foglia         : Exact transition moments, OPA infrastructure, MCD improvements    
  Dmitry Ganyushin       : Spin-Orbit,Spin-Spin,Magnetic field MRCI      
  Miquel Garcia-Rates    : C-PCM and meta-GGA Hessian, CCSD/C-PCM, Gaussian charge scheme 
  Tiago L. C. Gouveia    : GS-ROHF, GS-ROCIS                             
  Yang Guo               : DLPNO-NEVPT2, F12-NEVPT2, CIM, IAO-localization        
  Andreas Hansen         : Spin unrestricted coupled pair/coupled cluster methods 
  Ingolf Harden          : AUTO-CI MPn and infrastructure                
  Benjamin Helmich-Paris : MC-RPA, TRAH-(SCF,CASSCF), AVAS, COSX integrals, SCF dyn. polar., MC-PDFT, srDFT 
  Lee Huntington         : MR-EOM, pCC                                   
  Robert Izsak           : Overlap fitted RIJCOSX, COSX-SCS-MP3, EOM     
  Riya Kayal             : Wick's Theorem for AUTO-CI, AUTO-CI UHF-CCSDT 
  Emily Kempfer          : AUTO-CI RHF CISDT and CCSDT, approximate NEVPT4
  Christian Kollmar      : KDIIS, OOCD, Brueckner-CCSD(T), CCSD density, CASPT2, CASPT2-K, improved NEVPT2 
  Axel Koslowski         : Symmetry handling                             
  Simone Kossmann        : meta-GGA functionals, TD-DFT gradient, OOMP2, (MP2 Hessian; deprecated post 5.0) 
  Lucas Lang             : DCDCAS, Hyperfine gauge corrections, ICE-SOC+SSC
  Marvin Lechner         : AUTO-CI (C++ implementation), FIC-MRCC        
  Spencer Leger          : CASSCF response                               
  Dagmar Lenk            : GEPOL surface, SMD, ORCA-2-JSON               
  Dimitrios Liakos       : Extrapolation schemes; Compound Job, Property file
  Dimitrios Manganas     : Further ROCIS development; embedding schemes. LFT, Crystal Embedding 
  Dimitrios Pantazis     : SARC Basis sets                               
  Anastasios Papadopoulos: AUTO-CI, single reference methods and gradients 
  Taras Petrenko         : pre 6.0 DFT Hessian and TD-DFT gradient,  ECA, NRVS 
  Petra Pikulova         : Analytic Raman intensities                    
  Peter Pinski           : DLPNO-MP2, DLPNO-MP2 Gradient                 
  Shashank Vittal Rao    : ES-AILFT, MagRelax                            
  Christoph Reimann      : Effective Core Potentials                     
  Marius Retegan         : Local ZFS, SOC                                
  Christoph Riplinger    : Optimizer, TS searches, QM/MM, DLPNO-CCSD(T), (RO)-DLPNO pert. Triples 
  Michael Roemelt        : Original ROCIS implementation, recursive CI coupling coefficients
  Masaaki Saitow         : Open-shell DLPNO-CCSD energy and density      
  Barbara Sandhoefer     : DKH picture change effects                    
  Yorick L. A. Schmerwitz: GMF and freeze-and-release deltaSCF, NEB S-IDPP initial path                    
  Kantharuban Sivalingam : CASSCF convergence/infrastructure, NEVPT2, NEVPT3, NEVPT4(SD), FIC-MRCI and CEPA variants
  Bernardo de Souza      : ESD, SOC TD-DFT                               
  Georgi L. Stoychev     : AutoAux, RI-MP2 NMR, DLPNO-MP2 response, X2C  
  Van Anh Tran           : RI-MP2 g-tensors                              
  Willem Van den Heuvel  : Paramagnetic NMR                              
  Zikuan Wang            : NOTCH, Electric field optimization            
  Frank Wennmohs         : Technical directorship and infrastructure     
  Hang Xu                : AUTO-CI-Response properties                   
                                                                         
[FACCTs GmbH]                                                            
  Markus Bursch, Nicolas Foglia, Miquel Garcia-Rates, Ingolf Harden, Hagen Neugebauer, Anastasios Papadopoulos, 
  Christoph Riplinger, Bernardo de Souza, Georgi L. Stoychev                                                    
                                                                 
  APM, various basis sets, CI-OPT, improved COSX, DLPNO-Multilevel,           
  DOCKER, DRACO, updates on ESD, Fragmentator, GOAT, IRC, LR-CPCM, L-BFGS, MBIS, meta-GGA TD-DFT gradient, ML-optimized integration grids, 
  MM, NACMEs, nearIR, NEB, NEB-TS, NL-DFT gradient (VV10), 2- and 3-layer-ONIOM, interface openCOSMO-RS, QMMM,   
  Crystal-QMMM, RESP, rigid body optimization, SF, symmetry and pop. for TD-DFT, various functionals, SOLVATOR                                   
                                                                         
[Other institutions]                                                     
  V. Asgeirsson          : NEB                                           
  Christoph Bannwarth    : sTDA-DFT, sTD-DFT, PBEh-3c, B97-3c, D3        
  Giovanni Bistoni       : ETS/NOCV, ADLD/ADEX, COVALED                  
  Martin Brehm           : Molecular dynamics                            
  Ronald Cardenas        : ETS/NOCV                                      
  Martina Colucci        : COVALED                                       
  Sebastian Ehlert       : rSCAN, r2SCAN, r2SCAN-3c, D4, dhf basis sets  
  Marvin Friede          : D4 for Fr, Ra, Ac-Lr                          
  Lars Goerigk           : TD-DFT with DH, B97 family of functionals     
  Stefan Grimme          : VdW corrections, initial TS optimization, DFT functionals, gCP, sTDA/sTD-DF 
  Waldemar Hujo          : DFT-NL                                        
  H. Jonsson             : NEB                                           
  Holger Kruse           : gCP                                           
  Marcel Mueller         : wB97X-3c, vDZP basis set                      
  Hagen Neugebauer       : wr2SCAN, Native XTB                           
  Gianluca Regni         : ADLD/ADEX                                     
  Tobias Risthaus        : pre 6.0 range-separated hybrid DFT and stability analysis
  Lukas Wittmann         : regularized MP2, r2SCAN double-hybrids, wr2SCAN        
                                                                         
We gratefully acknowledge several colleagues who have allowed us to      
interface, adapt or use parts of their codes:                            
  Ed Valeev, F. Pavosevic, A. Kumar             : LibInt (2-el integral package), F12 methods 
  Garnet Chan, S. Sharma, J. Yang, R. Olivares  : DMRG                   
  Ulf Ekstrom                                   : XCFun DFT Library      
  Mihaly Kallay                                 : mrcc  (arbitrary order and MRCC methods)
  Frank Weinhold                                : gennbo (NPA and NBO analysis)           
  Simon Mueller                                 : openCOSMO-RS                            
  Christopher J. Cramer and Donald G. Truhlar   : smd solvation model                     
  S Lehtola, MJT Oliveira, MAL Marques          : LibXC Library                           
  Liviu Ungur et al                             : ANISO software                          


 Your calculation uses the libint2 library for the computation of 2-el integrals
 For citations please refer to: http://libint.valeyev.net

 Your ORCA version has been built with support for libXC version: 7.0.0
 For citations please refer to: https://libxc.gitlab.io

 This ORCA versions uses:
   CBLAS   interface :  Fast vector & matrix operations
   LAPACKE interface :  Fast linear algebra routines
   SCALAPACK package :  Parallel linear algebra routines
   Shared memory     :  Shared parallel matrices
   BLAS/LAPACK       :  OpenBLAS 0.3.29  USE64BITINT DYNAMIC_ARCH NO_AFFINITY Zen SINGLE_THREADED
        Core in use  :  Zen
   Copyright (c) 2011-2014, The OpenBLAS Project


  ***********************************
  * Starting time: Fri Apr 17 14:11:01 2026
  * Host name:     vmi3233575
  * Process ID:    347061
  * Working dir.:  /root/orca_b12_vps_pack/jobs/03_numfreq
  ***********************************

NOTE: MaxCore=2000 MB was set to SCF,MP2,MDCI,CIPSI,MRCI,RASCI and CIS
      => If you want to overwrite this, your respective input block should be placed after the MaxCore statement


***************************************
The coordinates will be read from file: ../../results/02_r2scan_xyz/double_ring_6_6_d1.90_m1_r2scan.xyz
***************************************


Your calculation utilizes the geometrical counterpoise correction gCP
Please cite in your paper:
H.Kruse, S. Grimme J.Chem.Phys., 136, (2012), 154101 
   

Your calculation utilizes the atom-pairwise dispersion correction
based on EEQ partial charges (D4)


================================================================================

----- Orbital basis set information -----
Your calculation utilizes the basis: def2-mTZVPP
   Stefan Grimme, Andreas Hansen, Sebastian Ehlert, and Jan-Michael Mewes 
   J. Chem. Phys. 154, 064103 (2021). DOI: 10.1063/5.0040021

----- AuxJ basis set information -----
Your calculation utilizes the basis: def2-mTZVPP/J
   Stefan Grimme, Andreas Hansen, Sebastian Ehlert, and Jan-Michael Mewes 
   J. Chem. Phys. 154, 000000 (2021). DOI: 10.1063/5.0040021

================================================================================
                                        WARNINGS
                       Please study these warnings very carefully!
================================================================================



WARNING: SCAN, rSCAN, or r2SCAN functional requested.
  ===> : libXC variant has now been activated.


WARNING: Gradients needed for Numerical Frequencies
  ===> : Setting RunTyp to EnGrad

WARNING: The environment variable RSH_COMMAND is not set!
  ===> : All Displacements for the Numerical Hessian or Gradient calculation
         will be started on localhost

================================================================================
                                       INPUT FILE
================================================================================
NAME = double_ring_6_6_d1.90_m1_r2scan_numfreq.inp
|  1> ! r2SCAN-3c TightSCF NumFreq
|  2> 
|  3> %pal
|  4>   nprocs 8
|  5> end
|  6> 
|  7> %maxcore 2000
|  8> 
|  9> * xyzfile 0 1 ../../results/02_r2scan_xyz/double_ring_6_6_d1.90_m1_r2scan.xyz
| 10> 
| 11>                          ****END OF INPUT****
================================================================================

                     *******************************
                     * Energy+Gradient Calculation *
                     *******************************

---------------------------------
CARTESIAN COORDINATES (ANGSTROEM)
---------------------------------
  B      1.621421    0.000075   -0.732302
  B      0.810152    1.402113   -0.733823
  B     -0.810124    1.402026   -0.733898
  B     -1.621501    0.000029   -0.732434
  B     -0.810017   -1.401932   -0.734080
  B      0.810221   -1.402052   -0.733946
  B      1.402137    0.810224    0.733992
  B     -0.000062    1.621261    0.732501
  B     -1.402201    0.810107    0.733872
  B     -1.401924   -0.810145    0.733854
  B      0.000014   -1.621651    0.732240
  B      1.401883   -0.810052    0.734025

----------------------------
CARTESIAN COORDINATES (A.U.)
----------------------------
  NO LB      ZA    FRAG     MASS         X           Y           Z
   0 B     5.0000    0    10.810    3.064042    0.000142   -1.383850
   1 B     5.0000    0    10.810    1.530965    2.649610   -1.386725
   2 B     5.0000    0    10.810   -1.530912    2.649445   -1.386866
   3 B     5.0000    0    10.810   -3.064193    0.000055   -1.384100
   4 B     5.0000    0    10.810   -1.530710   -2.649268   -1.387210
   5 B     5.0000    0    10.810    1.531096   -2.649494   -1.386957
   6 B     5.0000    0    10.810    2.649655    1.531101    1.387044
   7 B     5.0000    0    10.810   -0.000117    3.063739    1.384226
   8 B     5.0000    0    10.810   -2.649776    1.530880    1.386817
   9 B     5.0000    0    10.810   -2.649252   -1.530952    1.386783
  10 B     5.0000    0    10.810    0.000026   -3.064476    1.383733
  11 B     5.0000    0    10.810    2.649175   -1.530776    1.387106

--------------------------------
INTERNAL COORDINATES (ANGSTROEM)
--------------------------------
 B      0   0   0     0.000000000000     0.00000000     0.00000000
 B      1   0   0     1.619836490898     0.00000000     0.00000000
 B      2   1   0     1.620276004072   120.05211100     0.00000000
 B      3   2   1     1.619855045192   120.06229211     0.00000000
 B      4   3   2     1.619877661150   119.87753147   359.87007028
 B      1   2   3     1.619879090199   119.89319607     0.12606299
 B      1   2   3     1.689510274989    61.36476957   261.65426022
 B      7   1   2     1.619859646405   110.58758485    31.78911648
 B      8   7   1     1.619866187893   119.90478896    68.12472584
 B      9   8   7     1.620252023778   120.04008149   359.88249338
 B     10   9   8     1.619868744336   120.07400605     0.00000000
 B     11  10   9     1.619855801047   119.86736866     0.13791410

---------------------------
INTERNAL COORDINATES (A.U.)
---------------------------
 B      0   0   0     0.000000000000     0.00000000     0.00000000
 B      1   0   0     3.061047349530     0.00000000     0.00000000
 B      2   1   0     3.061877909059   120.05211100     0.00000000
 B      3   2   1     3.061082412064   120.06229211     0.00000000
 B      4   3   2     3.061125150031   119.87753147   359.87007028
 B      1   2   3     3.061127850542   119.89319607     0.12606299
 B      1   2   3     3.192711720175    61.36476957   261.65426022
 B      7   1   2     3.061091107096   110.58758485    31.78911648
 B      8   7   1     3.061103468716   119.90478896    68.12472584
 B      9   8   7     3.061832592872   120.04008149   359.88249338
 B     10   9   8     3.061108299694   120.07400605     0.00000000
 B     11  10   9     3.061083840423   119.86736866     0.13791410

---------------------
BASIS SET INFORMATION
---------------------
There are 1 groups of distinct atoms

 Group   1 Type B   : 11s6p1d contracted to 5s3p1d pattern {62111/411/1}

Atom   0B    basis set group =>   1
Atom   1B    basis set group =>   1
Atom   2B    basis set group =>   1
Atom   3B    basis set group =>   1
Atom   4B    basis set group =>   1
Atom   5B    basis set group =>   1
Atom   6B    basis set group =>   1
Atom   7B    basis set group =>   1
Atom   8B    basis set group =>   1
Atom   9B    basis set group =>   1
Atom  10B    basis set group =>   1
Atom  11B    basis set group =>   1
---------------------------------
AUXILIARY/J BASIS SET INFORMATION
---------------------------------
There are 1 groups of distinct atoms

 Group   1 Type B   : 8s3p3d contracted to 6s3p3d pattern {311111/111/111}

Atom   0B    basis set group =>   1
Atom   1B    basis set group =>   1
Atom   2B    basis set group =>   1
Atom   3B    basis set group =>   1
Atom   4B    basis set group =>   1
Atom   5B    basis set group =>   1
Atom   6B    basis set group =>   1
Atom   7B    basis set group =>   1
Atom   8B    basis set group =>   1
Atom   9B    basis set group =>   1
Atom  10B    basis set group =>   1
Atom  11B    basis set group =>   1


           ************************************************************
           *        Program running with 8 parallel MPI-processes     *
           *              working on a common directory               *
           ************************************************************
------------------------------------------------------------------------------
                             ORCA STARTUP CALCULATIONS
                           -- RI-GTO INTEGRALS CHOSEN --
------------------------------------------------------------------------------
------------------------------------------------------------------------------
                   ___                                                        
                  /   \      - P O W E R E D   B Y -                         
                 /     \                                                     
                 |  |  |   _    _      __       _____    __    __             
                 |  |  |  | |  | |    /  \     |  _  \  |  |  /  |          
                  \  \/   | |  | |   /    \    | | | |  |  | /  /          
                 / \  \   | |__| |  /  /\  \   | |_| |  |  |/  /          
                |  |  |   |  __  | /  /__\  \  |    /   |      \           
                |  |  |   | |  | | |   __   |  |    \   |  |\   \          
                \     /   | |  | | |  |  |  |  | |\  \  |  | \   \       
                 \___/    |_|  |_| |__|  |__|  |_| \__\ |__|  \__/        
                                                                              
                      - O R C A' S   B I G   F R I E N D -                    
                                      &                                       
                       - I N T E G R A L  F E E D E R -                       
                                                                              
 v1 FN, 2020, v2 2021, v3 2022-2024                                           
------------------------------------------------------------------------------


----------------------
SHARK INTEGRAL PACKAGE
----------------------

Number of atoms                             ...     12
Number of basis functions                   ...    228
Number of shells                            ...    108
Maximum angular momentum                    ...      2
Integral batch strategy                     ... SHARK/LIBINT Hybrid
RI-J (if used) integral strategy            ... SPLIT-RIJ (Revised 2003 algorithm where possible)
Printlevel                                  ...      1
Contraction scheme used                     ... SEGMENTED contraction
Prescreening option                         ... SCHWARTZ
   Thresh                                   ... 2.500e-11
   Tcut                                     ... 2.500e-12
   Tpresel                                  ... 2.500e-12 
Coulomb Range Separation                    ... NOT USED
Exchange Range Separation                   ... NOT USED
Multipole approximations                    ... NOT USED
Finite Nucleus Model                        ... NOT USED
CABS basis                                  ... NOT available
Auxiliary Coulomb fitting basis             ... AVAILABLE
   # of basis functions in Aux-J            ...    360
   # of shells in Aux-J                     ...    144
   Maximum angular momentum in Aux-J        ...      2
Auxiliary J/K fitting basis                 ... NOT available
Auxiliary Correlation fitting basis         ... NOT available
Auxiliary 'external' fitting basis          ... NOT available

Checking pre-screening integrals            ... done (  0.0 sec) Dimension = 108
   => SHARK Basis and OBASIS are compatible. Storing Pre-screening
Shell pair information
Shell pair cut-off parameter TPreSel        ...   2.5e-12
Total number of shell pairs                 ...      5886
Shell pairs after pre-screening             ...      5718
Total number of primitive shell pairs       ...     23700
Primitive shell pairs kept                  ...     16896
          la=0 lb=0:   1662 shell pairs
          la=1 lb=0:   2160 shell pairs
          la=1 lb=1:    666 shell pairs
          la=2 lb=0:    720 shell pairs
          la=2 lb=1:    432 shell pairs
          la=2 lb=2:     78 shell pairs

Checking whether 4 symmetric matrices of dimension 228 fit in memory
:Max Core in MB      =   2000.00
 MB in use           =      8.98
 MB left             =   1991.02
 MB needed           =      0.80
 Data fit in memory  = YES
Calculating RI/J V-Matrix + Cholesky decomp.... done (  0.0 sec)
Calculating Nuclear repulsion               ... done (  0.0 sec) ENN=    377.320741486180 Eh

Diagonalization of the overlap matrix:
Smallest eigenvalue                        ... 7.309e-06
Time for diagonalization                   ...    0.007 sec
Threshold for overlap eigenvalues          ... 1.000e-07
Number of eigenvalues below threshold      ... 0
Time for construction of square roots      ...    0.004 sec
Total time needed                          ...    0.013 sec

-------------------
DFT GRID GENERATION
-------------------

General Integration Accuracy     IntAcc      ... 4.388
Radial Grid Type                 RadialGrid  ... OptM3 with GC (2021)
Angular Grid (max. ang.)         AngularGrid ... 4 (Lebedev-302)
Angular grid pruning method      GridPruning ... 4 (adaptive)
Weight generation scheme         WeightScheme... mBecke (2022)
Basis function cutoff            BFCut       ... 1.0000e-11
Integration weight cutoff        WCut        ... 1.0000e-14
Partially contracted basis set               ... off
Rotationally invariant grid construction     ... off
Angular grids for H and He will be reduced by one unit

Total number of grid points                  ...    70168
Total number of batches                      ...     1102
Average number of points per batch           ...       63
Average number of grid points per atom       ...     5847
Grids setup in   0.8 sec
Initializing property integral containers    ... done (  0.0 sec)

SHARK setup successfully completed in   1.0 seconds

Maximum memory used throughout the entire STARTUP-calculation: 22.1 MB


           ************************************************************
           *        Program running with 8 parallel MPI-processes     *
           *              working on a common directory               *
           ************************************************************
-------------------------------------------------------------------------------
                                 ORCA GUESS
                   Start orbitals & Density for SCF / CASSCF
-------------------------------------------------------------------------------

------------
SCF SETTINGS
------------
Hamiltonian:
 Density Functional     Method          .... DFT(GTOs)
  Functional kind                       .... Exchange
  Functional name                       .... Re-regularized SCAN exchange by Furness et al
  Functional family                     .... MGGA
  Functional refs                              
    [ 0] J. W. Furness, A. D. Kaplan, J. Ning, J. P. Perdew, and J. Sun.,  J. Phys. Chem. Lett. 11, 8208-8215 (2020), doi: 10.1021/acs.jpclett.0c02405
    [ 1] J. W. Furness, A. D. Kaplan, J. Ning, J. P. Perdew, and J. Sun.,  J. Phys. Chem. Lett. 11, 9248-9248 (2020), doi: 10.1021/acs.jpclett.0c03077
  Functional external parameters        .... 6
    Parameter  0 _c1        =  6.670000e-01 : c1 parameter        
    Parameter  1 _c2        =  8.000000e-01 : c2 parameter        
    Parameter  2 _d         =  1.240000e+00 : d parameter         
    Parameter  3 _k1        =  6.500000e-02 : k1 parameter        
    Parameter  4 _eta       =  1.000000e-03 : eta parameter       
    Parameter  5 _dp2       =  3.610000e-01 : dp2 parameter       
  Functional kind                       .... Correlation
  Functional name                       .... Re-regularized SCAN correlation by Furness et al
  Functional family                     .... MGGA
  Functional refs                              
    [ 0] J. W. Furness, A. D. Kaplan, J. Ning, J. P. Perdew, and J. Sun.,  J. Phys. Chem. Lett. 11, 8208-8215 (2020), doi: 10.1021/acs.jpclett.0c02405
    [ 1] J. W. Furness, A. D. Kaplan, J. Ning, J. P. Perdew, and J. Sun.,  J. Phys. Chem. Lett. 11, 9248-9248 (2020), doi: 10.1021/acs.jpclett.0c03077
  Functional external parameters        .... 1
    Parameter  0 _eta       =  1.000000e-03 : Regularization parameter
 Gradients option       PostSCFGGA      .... off
 RI-approximation to the Coulomb term is turned on
   Number of AuxJ basis functions       .... 360


General Settings:
 Integral files         IntName         .... double_ring_6_6_d1.90_m1_r2scan_numfreq
 Hartree-Fock type      HFTyp           .... RHF
 Total Charge           Charge          ....    0
 Multiplicity           Mult            ....    1
 Number of Electrons    NEL             ....   60
 Basis Dimension        Dim             ....  228
 Nuclear Repulsion      ENuc            ....    377.3207414862 Eh

Convergence Acceleration:
 AO-DIIS                CNVDIIS         .... on
   Start iteration      DIISMaxIt       ....    12
   Startup error        DIISStart       ....  0.200000
   # of expansion vecs  DIISMaxEq       ....     5
   Bias factor          DIISBfac        ....   1.050
   Max. coefficient     DIISMaxC        ....  10.000
 MO-DIIS                CNVKDIIS        .... off
 Trust-Rad. Augm. Hess. CNVTRAH         .... auto
   Auto Start mean grad. ratio tolernc. ....  1.125000
   Auto Start start iteration           ....    50
   Auto Start num. interpolation iter.  ....    10
   Max. Number of Micro iterations      ....    24
   Max. Number of Macro iterations      .... Maxiter - #DIIS iter
   Number of Davidson start vectors     ....     2
   Converg. threshold    (grad. norm)   ....   1.000e-05
   Grad. Scal. Fac. for Micro threshold ....   0.100
   Minimum threshold for Micro iter.    ....   1.000e-02
   NR start threshold (gradient norm)   ....   1.000e-04
   Initial trust radius                 ....   0.400
   Minimum AH scaling param. (alpha)    ....   1.000
   Maximum AH scaling param. (alpha)    .... 1000.000
   Quad. conv. algorithm                .... NR
   White noise on init. David. guess    .... on
   Maximum white noise                  ....   0.010
   Pseudo random numbers                .... off
   Inactive MOs                         .... canonical
   Orbital update algorithm             .... Taylor
   Preconditioner                       .... Diag
   Full preconditioner red. dimension   ....   250
   COSX micro iterations for RIJONX calc.... off
 SOSCF                 CNVSOSCF           .... on
   Start iteration     SOSCFMaxIt         ....   150
   Startup grad/error  SOSCFStart         ....  0.003300
   Hessian update      SOSCFHessUp        .... L-BFGS
   Autom. constraints  SOSCFAutoConstrain .... off
 Level Shifting         CNVShift        .... on
   Level shift para.    LevelShift      ....    0.2500
   Turn off err/grad.   ShiftErr        ....    0.0010
 Zerner damping         CNVZerner       .... off
 Static damping         CNVDamp         .... on
   Fraction old density DampFac         ....    0.7000
   Max. Damping (<1)    DampMax         ....    0.9800
   Min. Damping (>=0)   DampMin         ....    0.0000
   Turn off err/grad.   DampErr         ....    0.1000

SCF Procedure:
 Maximum # iterations   MaxIter         ....   125
 SCF integral mode      SCFMode         .... Direct
   Integral package                     .... SHARK and LIBINT hybrid scheme
 Reset frequency        DirectResetFreq ....    20
 Integral Threshold     Thresh          ....  2.500e-11 Eh
 Primitive CutOff       TCut            ....  2.500e-12 Eh

Convergence Tolerance:
 Convergence Check Mode ConvCheckMode   .... Total+1el-Energy
 Convergence forced     ConvForced      .... 0
 Energy Change          TolE            ....  1.000e-08 Eh
 1-El. energy change                    ....  1.000e-05 Eh
 Orbital Gradient       TolG            ....  1.000e-05
 Orbital Rotation angle TolX            ....  1.000e-05
 DIIS Error             TolErr          ....  5.000e-07

------------------------------
INITIAL GUESS: MODEL POTENTIAL
------------------------------
Loading Hartree-Fock densities                     ... done
Calculating cut-offs                               ... done
Initializing the effective Hamiltonian             ... done
Setting up the integral package (SHARK)            ... done
Starting the Coulomb interaction                   ... done (   0.1 sec)
Making the grid                                    ... done (   0.3 sec)
Mapping shells                                     ... done
Starting the XC term evaluation                    ... done (   0.1 sec)
  promolecular density results
     # of electrons  =     60.008759214
     EX              =    -45.835198430
     EC              =     -1.904044174
     EX+EC           =    -47.739242605
Transforming the Hamiltonian                       ... done (   0.0 sec)
Diagonalizing the Hamiltonian                      ... done (   0.0 sec)
Back transforming the eigenvectors                 ... done (   0.0 sec)
Now organizing SCF variables                       ... done
                      ------------------
                      INITIAL GUESS DONE (   0.5 sec)
                      ------------------
             **** ENERGY FILE WAS UPDATED (double_ring_6_6_d1.90_m1_r2scan_numfreq.en.tmp) ****
Finished Guess after   1.0 sec
Maximum memory used throughout the entire GUESS-calculation: 12.4 MB


           ************************************************************
           *        Program running with 8 parallel MPI-processes     *
           *              working on a common directory               *
           ************************************************************

-------------------------------------------------------------------------------------------
                                      ORCA LEAN-SCF
                              memory conserving SCF solver
-------------------------------------------------------------------------------------------

----------------------------------------D-I-I-S--------------------------------------------
Iteration    Energy (Eh)           Delta-E    RMSDP     MaxDP     DIISErr   Damp  Time(sec)
-------------------------------------------------------------------------------------------
               ***  Starting incremental Fock matrix formation  ***
    1    -297.2131386509986442     0.00e+00  5.19e-02  2.18e-01  1.53e-01  0.700   0.8
Warning: op=0 Small HOMO/LUMO gap (   0.057) - skipping pre-diagonalization
         Will do a full diagonalization
    2    -297.5168276213353238    -3.04e-01  3.70e-02  1.62e-01  6.45e-02  0.700   0.8
                               ***Turning on AO-DIIS***
    3    -297.6166485164195592    -9.98e-02  4.26e-02  3.99e-01  1.53e-02  0.700   0.8
    4    -297.6708417153290611    -5.42e-02  1.14e-01  1.08e+00  1.09e-02  0.000   0.8
    5    -297.8036653694096003    -1.33e-01  5.41e-03  2.35e-02  1.09e-02  0.000   0.9
    6    -297.8087627979007266    -5.10e-03  9.28e-04  4.96e-03  3.98e-03  0.000   0.8
                              *** Initializing SOSCF ***
---------------------------------------S-O-S-C-F--------------------------------------
Iteration    Energy (Eh)           Delta-E    RMSDP     MaxDP     MaxGrad    Time(sec)
--------------------------------------------------------------------------------------
    7    -297.8094377334830369    -6.75e-04  6.76e-04  3.08e-03  1.45e-03     0.7
               *** Restarting incremental Fock matrix formation ***
    8    -297.8095410425399905    -1.03e-04  4.46e-04  1.40e-03  8.53e-04     0.7
    9    -297.8095366949166873     4.35e-06  8.71e-04  4.21e-03  1.02e-03     0.7
   10    -297.8095644796312627    -2.78e-05  4.59e-05  2.11e-04  4.52e-05     0.7
   11    -297.8095645572303738    -7.76e-08  1.57e-05  7.19e-05  2.02e-05     0.6
   12    -297.8095645802670788    -2.30e-08  8.26e-06  7.39e-05  2.28e-06     0.6
                  *** Gradient check signals convergence ***

               *****************************************************
               *                     SUCCESS                       *
               *           SCF CONVERGED AFTER  12 CYCLES          *
               *****************************************************

             **** ENERGY FILE WAS UPDATED (double_ring_6_6_d1.90_m1_r2scan_numfreq.en.tmp) ****

----------------
TOTAL SCF ENERGY
----------------

Total Energy       :       -297.80956458722142 Eh           -8103.81024 eV

Components:
Nuclear Repulsion  :        377.32074148617983 Eh           10267.41936 eV
Electronic Energy  :       -675.13030607340124 Eh          -18371.22960 eV
One Electron Energy:      -1144.06993504447178 Eh          -31131.72564 eV
Two Electron Energy:        468.93962897107059 Eh           12760.49604 eV

Virial components:
Potential Energy   :       -594.21343573319655 Eh          -16169.36962 eV
Kinetic Energy     :        296.40387114597513 Eh            8065.55938 eV
Virial Ratio       :          2.00474249353023

DFT components:
N(Alpha)           :       29.999743897911 electrons
N(Beta)            :       29.999743897911 electrons
N(Total)           :       59.999487795822 electrons
E(X)               :      -46.853673329076 Eh       
E(C)               :       -1.900459540783 Eh       
E(XC)              :      -48.754132869859 Eh       

---------------
SCF CONVERGENCE
---------------

  Last Energy change         ...    2.3037e-08  Tolerance :   1.0000e-08
  Last MAX-Density change    ...    7.3941e-05  Tolerance :   1.0000e-07
  Last RMS-Density change    ...    8.2566e-06  Tolerance :   5.0000e-09
  Last DIIS Error            ...    1.4510e-03  Tolerance :   5.0000e-07
  Last Orbital Gradient      ...    2.2769e-06  Tolerance :   1.0000e-05
  Last Orbital Rotation      ...    8.9298e-06  Tolerance :   1.0000e-05


----------------
ORBITAL ENERGIES
----------------

  NO   OCC          E(Eh)            E(eV) 
   0   2.0000      -6.653015      -181.0377 
   1   2.0000      -6.652710      -181.0294 
   2   2.0000      -6.652709      -181.0294 
   3   2.0000      -6.652338      -181.0193 
   4   2.0000      -6.652110      -181.0131 
   5   2.0000      -6.652109      -181.0131 
   6   2.0000      -6.652075      -181.0122 
   7   2.0000      -6.651981      -181.0096 
   8   2.0000      -6.651720      -181.0025 
   9   2.0000      -6.651633      -181.0001 
  10   2.0000      -6.651574      -180.9985 
  11   2.0000      -6.651572      -180.9985 
  12   2.0000      -0.752277       -20.4705 
  13   2.0000      -0.662167       -18.0185 
  14   2.0000      -0.662166       -18.0185 
  15   2.0000      -0.523376       -14.2418 
  16   2.0000      -0.523298       -14.2397 
  17   2.0000      -0.460569       -12.5327 
  18   2.0000      -0.378538       -10.3006 
  19   2.0000      -0.378536       -10.3005 
  20   2.0000      -0.373945       -10.1756 
  21   2.0000      -0.373944       -10.1755 
  22   2.0000      -0.359573        -9.7845 
  23   2.0000      -0.296491        -8.0679 
  24   2.0000      -0.295999        -8.0545 
  25   2.0000      -0.295836        -8.0501 
  26   2.0000      -0.252694        -6.8761 
  27   2.0000      -0.252693        -6.8761 
  28   2.0000      -0.208323        -5.6688 
  29   2.0000      -0.208323        -5.6687 
  30   0.0000      -0.139130        -3.7859 
  31   0.0000      -0.107027        -2.9124 
  32   0.0000      -0.106840        -2.9073 
  33   0.0000      -0.085176        -2.3178 
  34   0.0000      -0.084974        -2.3123 
  35   0.0000      -0.069818        -1.8998 
  36   0.0000      -0.069815        -1.8998 
  37   0.0000      -0.054884        -1.4935 
  38   0.0000      -0.054883        -1.4935 
  39   0.0000      -0.016563        -0.4507 
  40   0.0000      -0.016197        -0.4408 
*Only the first 10 virtual orbitals were printed.

                    ********************************
                    * MULLIKEN POPULATION ANALYSIS *
                    ********************************

-----------------------
MULLIKEN ATOMIC CHARGES
-----------------------
   0 B :   -0.001760
   1 B :    0.000919
   2 B :    0.000891
   3 B :   -0.001874
   4 B :    0.000933
   5 B :    0.000896
   6 B :    0.000951
   7 B :   -0.001948
   8 B :    0.001086
   9 B :    0.000763
  10 B :   -0.001710
  11 B :    0.000854
Sum of atomic charges:    0.0000000

--------------------------------
MULLIKEN REDUCED ORBITAL CHARGES
--------------------------------
  0 B s       :     3.014092  s :     3.014092
      pz      :     0.733297  p :     1.950579
      px      :     0.493051
      py      :     0.724231
      dz2     :     0.010309  d :     0.037088
      dxz     :     0.006448
      dyz     :     0.007635
      dx2y2   :     0.006436
      dxy     :     0.006260

  1 B s       :     3.013648  s :     3.013648
      pz      :     0.733043  p :     1.948329
      px      :     0.665834
      py      :     0.549453
      dz2     :     0.010317  d :     0.037104
      dxz     :     0.007351
      dyz     :     0.006755
      dx2y2   :     0.006298
      dxy     :     0.006382

  2 B s       :     3.014050  s :     3.014050
      pz      :     0.733048  p :     1.947955
      px      :     0.665730
      py      :     0.549177
      dz2     :     0.010317  d :     0.037105
      dxz     :     0.007351
      dyz     :     0.006755
      dx2y2   :     0.006298
      dxy     :     0.006383

  3 B s       :     3.013751  s :     3.013751
      pz      :     0.733312  p :     1.951035
      px      :     0.493488
      py      :     0.724236
      dz2     :     0.010310  d :     0.037088
      dxz     :     0.006448
      dyz     :     0.007634
      dx2y2   :     0.006436
      dxy     :     0.006260

  4 B s       :     3.014076  s :     3.014076
      pz      :     0.733014  p :     1.947886
      px      :     0.665742
      py      :     0.549131
      dz2     :     0.010318  d :     0.037105
      dxz     :     0.007352
      dyz     :     0.006755
      dx2y2   :     0.006297
      dxy     :     0.006383

  5 B s       :     3.013616  s :     3.013616
      pz      :     0.733034  p :     1.948386
      px      :     0.665840
      py      :     0.549511
      dz2     :     0.010317  d :     0.037103
      dxz     :     0.007350
      dyz     :     0.006755
      dx2y2   :     0.006297
      dxy     :     0.006383

  6 B s       :     3.013179  s :     3.013179
      pz      :     0.733038  p :     1.948768
      px      :     0.549798
      py      :     0.665933
      dz2     :     0.010317  d :     0.037102
      dxz     :     0.006755
      dyz     :     0.007350
      dx2y2   :     0.006298
      dxy     :     0.006382

  7 B s       :     3.014677  s :     3.014677
      pz      :     0.733284  p :     1.950181
      px      :     0.724235
      py      :     0.492662
      dz2     :     0.010310  d :     0.037090
      dxz     :     0.007636
      dyz     :     0.006447
      dx2y2   :     0.006436
      dxy     :     0.006260

  8 B s       :     3.013017  s :     3.013017
      pz      :     0.733054  p :     1.948793
      px      :     0.549779
      py      :     0.665961
      dz2     :     0.010318  d :     0.037104
      dxz     :     0.006756
      dyz     :     0.007350
      dx2y2   :     0.006297
      dxy     :     0.006383

  9 B s       :     3.014583  s :     3.014583
      pz      :     0.733038  p :     1.947548
      px      :     0.548870
      py      :     0.665640
      dz2     :     0.010317  d :     0.037106
      dxz     :     0.006755
      dyz     :     0.007352
      dx2y2   :     0.006298
      dxy     :     0.006383

 10 B s       :     3.013195  s :     3.013195
      pz      :     0.733322  p :     1.951427
      px      :     0.724234
      py      :     0.493872
      dz2     :     0.010309  d :     0.037087
      dxz     :     0.007633
      dyz     :     0.006449
      dx2y2   :     0.006436
      dxy     :     0.006260

 11 B s       :     3.014566  s :     3.014566
      pz      :     0.733019  p :     1.947475
      px      :     0.548845
      py      :     0.665611
      dz2     :     0.010317  d :     0.037105
      dxz     :     0.006755
      dyz     :     0.007352
      dx2y2   :     0.006298
      dxy     :     0.006383



                     *******************************
                     * LOEWDIN POPULATION ANALYSIS *
                     *******************************

----------------------
LOEWDIN ATOMIC CHARGES
----------------------
   0 B :   -0.000590
   1 B :    0.000296
   2 B :    0.000325
   3 B :   -0.000662
   4 B :    0.000348
   5 B :    0.000288
   6 B :    0.000241
   7 B :   -0.000558
   8 B :    0.000223
   9 B :    0.000369
  10 B :   -0.000697
  11 B :    0.000418

-------------------------------
LOEWDIN REDUCED ORBITAL CHARGES
-------------------------------
  0 B s       :     2.685416  s :     2.685416
      pz      :     0.807573  p :     2.243449
      px      :     0.543952
      py      :     0.891924
      dz2     :     0.021823  d :     0.071725
      dxz     :     0.008530
      dyz     :     0.015957
      dx2y2   :     0.010275
      dxy     :     0.015140

  1 B s       :     2.685628  s :     2.685628
      pz      :     0.807630  p :     2.242341
      px      :     0.804581
      py      :     0.630130
      dz2     :     0.021834  d :     0.071736
      dxz     :     0.014116
      dyz     :     0.010395
      dx2y2   :     0.013905
      dxy     :     0.011485

  2 B s       :     2.685642  s :     2.685642
      pz      :     0.807634  p :     2.242295
      px      :     0.804569
      py      :     0.630093
      dz2     :     0.021834  d :     0.071738
      dxz     :     0.014117
      dyz     :     0.010395
      dx2y2   :     0.013905
      dxy     :     0.011486

  3 B s       :     2.685407  s :     2.685407
      pz      :     0.807564  p :     2.243531
      px      :     0.544064
      py      :     0.891904
      dz2     :     0.021824  d :     0.071724
      dxz     :     0.008532
      dyz     :     0.015955
      dx2y2   :     0.010273
      dxy     :     0.015141

  4 B s       :     2.685644  s :     2.685644
      pz      :     0.807608  p :     2.242270
      px      :     0.804613
      py      :     0.630049
      dz2     :     0.021835  d :     0.071738
      dxz     :     0.014116
      dyz     :     0.010397
      dx2y2   :     0.013903
      dxy     :     0.011486

  5 B s       :     2.685624  s :     2.685624
      pz      :     0.807603  p :     2.242354
      px      :     0.804603
      py      :     0.630148
      dz2     :     0.021834  d :     0.071734
      dxz     :     0.014113
      dyz     :     0.010398
      dx2y2   :     0.013904
      dxy     :     0.011485

  6 B s       :     2.685611  s :     2.685611
      pz      :     0.807601  p :     2.242414
      px      :     0.630218
      py      :     0.804596
      dz2     :     0.021835  d :     0.071733
      dxz     :     0.010397
      dyz     :     0.014114
      dx2y2   :     0.013905
      dxy     :     0.011483

  7 B s       :     2.685435  s :     2.685435
      pz      :     0.807562  p :     2.243397
      px      :     0.891934
      py      :     0.543901
      dz2     :     0.021823  d :     0.071727
      dxz     :     0.015960
      dyz     :     0.008529
      dx2y2   :     0.010275
      dxy     :     0.015139

  8 B s       :     2.685612  s :     2.685612
      pz      :     0.807627  p :     2.242429
      px      :     0.630173
      py      :     0.804629
      dz2     :     0.021835  d :     0.071736
      dxz     :     0.010398
      dyz     :     0.014114
      dx2y2   :     0.013904
      dxy     :     0.011485

  9 B s       :     2.685656  s :     2.685656
      pz      :     0.807638  p :     2.242237
      px      :     0.630022
      py      :     0.804578
      dz2     :     0.021834  d :     0.071738
      dxz     :     0.010397
      dyz     :     0.014116
      dx2y2   :     0.013905
      dxy     :     0.011487

 10 B s       :     2.685390  s :     2.685390
      pz      :     0.807574  p :     2.243585
      px      :     0.891896
      py      :     0.544115
      dz2     :     0.021823  d :     0.071723
      dxz     :     0.015953
      dyz     :     0.008533
      dx2y2   :     0.010272
      dxy     :     0.015141

 11 B s       :     2.685661  s :     2.685661
      pz      :     0.807618  p :     2.242185
      px      :     0.630010
      py      :     0.804556
      dz2     :     0.021833  d :     0.071737
      dxz     :     0.010395
      dyz     :     0.014118
      dx2y2   :     0.013904
      dxy     :     0.011486



                      *****************************
                      * MAYER POPULATION ANALYSIS *
                      *****************************

  NA   - Mulliken gross atomic population
  ZA   - Total nuclear charge
  QA   - Mulliken gross atomic charge
  VA   - Mayer's total valence
  BVA  - Mayer's bonded valence
  FA   - Mayer's free valence

  ATOM       NA         ZA         QA         VA         BVA        FA
  0 B      5.0018     5.0000    -0.0018     3.6718     3.6718    -0.0000
  1 B      4.9991     5.0000     0.0009     3.6681     3.6681    -0.0000
  2 B      4.9991     5.0000     0.0009     3.6679     3.6679    -0.0000
  3 B      5.0019     5.0000    -0.0019     3.6722     3.6722     0.0000
  4 B      4.9991     5.0000     0.0009     3.6678     3.6678     0.0000
  5 B      4.9991     5.0000     0.0009     3.6682     3.6682     0.0000
  6 B      4.9990     5.0000     0.0010     3.6684     3.6684    -0.0000
  7 B      5.0019     5.0000    -0.0019     3.6718     3.6718    -0.0000
  8 B      4.9989     5.0000     0.0011     3.6682     3.6682     0.0000
  9 B      4.9992     5.0000     0.0008     3.6678     3.6678     0.0000
 10 B      5.0017     5.0000    -0.0017     3.6723     3.6723    -0.0000
 11 B      4.9991     5.0000     0.0009     3.6677     3.6677    -0.0000

  Mayer bond orders larger than 0.100000
B(  0-B ,  1-B ) :   0.8441 B(  0-B ,  5-B ) :   0.8440 B(  0-B ,  6-B ) :   0.7812 
B(  0-B , 11-B ) :   0.7816 B(  1-B ,  2-B ) :   0.8429 B(  1-B ,  6-B ) :   0.7809 
B(  1-B ,  7-B ) :   0.7815 B(  2-B ,  3-B ) :   0.8442 B(  2-B ,  7-B ) :   0.7817 
B(  2-B ,  8-B ) :   0.7811 B(  3-B ,  4-B ) :   0.8441 B(  3-B ,  8-B ) :   0.7811 
B(  3-B ,  9-B ) :   0.7815 B(  4-B ,  5-B ) :   0.8430 B(  4-B ,  9-B ) :   0.7815 
B(  4-B , 10-B ) :   0.7812 B(  5-B , 10-B ) :   0.7810 B(  5-B , 11-B ) :   0.7814 
B(  6-B ,  7-B ) :   0.8442 B(  6-B , 11-B ) :   0.8429 B(  7-B ,  8-B ) :   0.8441 
B(  8-B ,  9-B ) :   0.8429 B(  9-B , 10-B ) :   0.8441 B( 10-B , 11-B ) :   0.8441 


-------
TIMINGS
-------

Total SCF time: 0 days 0 hours 0 min 10 sec 

Total time                  ....      10.096 sec
Sum of individual times     ....       9.399 sec  ( 93.1%)

SCF preparation             ....       0.508 sec  (  5.0%)
Fock matrix formation       ....       8.279 sec  ( 82.0%)
  Startup                   ....       0.014 sec  (  0.2% of F)
  Split-RI-J                ....       1.192 sec  ( 14.4% of F)
  XC integration            ....       7.518 sec  ( 90.8% of F)
    XC Preparation          ....       0.000 sec  (  0.0% of XC)
    Basis function eval.    ....       0.810 sec  ( 10.8% of XC)
    Density eval.           ....       2.297 sec  ( 30.6% of XC)
    XC-Functional eval.     ....       0.348 sec  (  4.6% of XC)
    XC-Potential eval.      ....       2.713 sec  ( 36.1% of XC)
Diagonalization             ....       0.000 sec  (  0.0%)
Density matrix formation    ....       0.073 sec  (  0.7%)
Total Energy calculation    ....       0.033 sec  (  0.3%)
Population analysis         ....       0.039 sec  (  0.4%)
Orbital Transformation      ....       0.051 sec  (  0.5%)
Orbital Orthonormalization  ....       0.000 sec  (  0.0%)
DIIS solution               ....       0.285 sec  (  2.8%)
SOSCF solution              ....       0.131 sec  (  1.3%)
Finished LeanSCF after  10.1 sec

Maximum memory used throughout the entire LEANSCF-calculation: 14.7 MB


-------------------------------------------------------------------------------
                          DFT DISPERSION CORRECTION                            
                                                                               
                                DFTD4 V3.4.0                                   
-------------------------------------------------------------------------------
The R2SCAN3C composite method is recognized
Using three-body term ABC
Active option DFTDOPT                   ...         5   

-------------------------   ----------------
Dispersion correction           -0.005744194
-------------------------   ----------------

------------------   -----------------
gCP correction             0.010069734
------------------   -----------------

-------------------------   --------------------
FINAL SINGLE POINT ENERGY      -297.805239047221
-------------------------   --------------------



           ************************************************************
           *        Program running with 8 parallel MPI-processes     *
           *              working on a common directory               *
           ************************************************************
------------------------------------------------------------------------------
                         ORCA SCF GRADIENT CALCULATION
------------------------------------------------------------------------------

Nuc. rep. gradient        (SHARK) ... done (  0.0 sec)
HCore & Overlap gradient  (SHARK) ... done (  0.1 sec)
Split-RIJ-J gradient      (SHARK) ... done (  0.4 sec)
XC gradient                       ... done (  1.4 sec)
Dispersion correction             ... done (  0.1 sec)

-------------------
DISPERSION GRADIENT
-------------------

   1   B   :    0.000050257    0.000000000   -0.000012738
   2   B   :    0.000025092    0.000043436   -0.000012743
   3   B   :   -0.000025092    0.000043432   -0.000012745
   4   B   :   -0.000050263   -0.000000001   -0.000012746
   5   B   :   -0.000025089   -0.000043429   -0.000012748
   6   B   :    0.000025097   -0.000043435   -0.000012747
   7   B   :    0.000043440    0.000025097    0.000012752
   8   B   :   -0.000000001    0.000050251    0.000012742
   9   B   :   -0.000043440    0.000025094    0.000012748
  10   B   :   -0.000043427   -0.000025091    0.000012740
  11   B   :    0.000000000   -0.000050268    0.000012742
  12   B   :    0.000043426   -0.000025088    0.000012743

Difference to translation invariance:
           :    0.0000000000   -0.0000000000    0.0000000000

Difference to rotation invariance:
           :   -0.0000000000   -0.0000000000    0.0000000000

Norm of the Dispersion gradient    ...    0.0001793926
RMS gradient                       ...    0.0000298988
MAX gradient                       ...    0.0000502679
gCP correction                   ... done

------------------
CARTESIAN GRADIENT
------------------

   1   B   :   -0.000061680    0.000001002    0.000038336
   2   B   :    0.000026423    0.000014205   -0.000000990
   3   B   :   -0.000021130    0.000020394    0.000001261
   4   B   :    0.000045746    0.000000600    0.000030320
   5   B   :   -0.000021145   -0.000008668    0.000000614
   6   B   :    0.000021466   -0.000023550    0.000002135
   7   B   :    0.000029544    0.000030080   -0.000003584
   8   B   :   -0.000001231   -0.000062467   -0.000032448
   9   B   :   -0.000023952    0.000026424   -0.000002919
  10   B   :   -0.000009018   -0.000025076    0.000000419
  11   B   :    0.000005966    0.000044895   -0.000035583
  12   B   :    0.000009010   -0.000017840    0.000002441

Difference to translation invariance:
           :   -0.0000000000   -0.0000000000   -0.0000000000

Difference to rotation invariance:
           :   -0.0000002503    0.0000015294   -0.0000018553

Norm of the Cartesian gradient     ...    0.0001550980
RMS gradient                       ...    0.0000258497
MAX gradient                       ...    0.0000624669

-------
TIMINGS
-------

Total SCF gradient time     ....        2.017 sec

Densities                   ....       0.006 sec  (  0.3%)
One electron gradient       ....       0.127 sec  (  6.3%)
RI-J Coulomb gradient       ....       0.433 sec  ( 21.5%)
XC gradient                 ....       1.375 sec  ( 68.1%)

Maximum memory used throughout the entire SCFGRAD-calculation: 32.5 MB


           ************************************************************
           *        Program running with 8 parallel MPI-processes     *
           *              working on a common directory               *
           ************************************************************

------------------------------------------------------------------------------
                              ORCA PROPERTY CALCULATIONS
------------------------------------------------------------------------------

GBWName                                 ... double_ring_6_6_d1.90_m1_r2scan_numfreq.gbw
Number of atoms                         ...     12
Number of basis functions               ...    228
Max core memory                         ...   2000 MB

Electric properties:
Dipole moment                           ... YES
Quadrupole moment                       ...  NO
Static polarizability (Dipole/Dipole)   ...  NO
Static polarizability (Dipole/Quad.)    ...  NO
Static polarizability (Quad./Quad.)     ...  NO
Static polarizability (Velocity)        ...  NO
Static hyperpolarizability              ...  NO

Atomic electric properties:
Dipole moment                           ...  NO
Quadrupole moment                       ...  NO
Static polarizability                   ...  NO

Choice of electric origin               ... Center of mass
Position of electric origin             ...    -0.000000     0.000000     0.000000

General magnetic properties:
Magnetizability                         ...  NO

EPR properties:
g-Tensor (aka g-matrix)                 ...  NO
Zero-Field splitting spin-orbit         ...  NO
Zero-field splitting spin-spin          ...  NO
Hyperfine couplings                     ...  NO (   0 nuclei)
Quadrupole couplings                    ...  NO (   0 nuclei)
Contact density                         ...  NO (   0 nuclei)

NMR properties:
Chemical shifts                         ...  NO (   0 nuclei)
Spin-rotation constants                 ...  NO (   0 nuclei)
Spin-spin couplings                     ...  NO (   0 nuclei,    0 pairs)

Choice of magnetic origin               ... GIAO
Position of magnetic origin             ...     0.000000     0.000000     0.000000

Properties with geometric perturbations:
SCF Hessian                             ...  NO
IR spectrum                             ...  NO
VCD spectrum                            ...  NO
X-ray spectroscopy properties:
SCF XES/XAS/RIXS spectra                ...  NO

SCF SOC stabilization energy            ...  NO
Diagonal Born-Oppenheimer correction    ...  NO

-------------
DIPOLE MOMENT
-------------

Method             : SCF
Type of density    : Electron Density
Multiplicity       :   1
Irrep              :   0
Energy             :  -297.8095645872214163 Eh
Basis              : AO
                                X                 Y                 Z
Electronic contribution:      0.000287805      -0.000116961      -0.000034911
Nuclear contribution   :      0.000000000       0.000000000      -0.000000000
                        -----------------------------------------
Total Dipole Moment    :      0.000287805      -0.000116961      -0.000034911
                        -----------------------------------------
Magnitude (a.u.)       :      0.000312618
Magnitude (Debye)      :      0.000794613



--------------------
Rotational spectrum 
--------------------
 
Rotational constants in cm-1:             0.070242             0.070242             0.049518 
Rotational constants in MHz :          2105.809931          2105.798839          1484.510436 

Dipole components along the rotational axes: 
x,y,z [a.u.] :     0.000310     0.000022    -0.000035 
x,y,z [Debye]:     0.000788     0.000056    -0.000089 

 

Dipole moment calculation done in   0.0 sec 

Maximum memory used throughout the entire PROP-calculation: 11.1 MB

----------------------------------------------------------------------------
                           ORCA NUMERICAL FREQUENCIES
                              (8-process run)
----------------------------------------------------------------------------

Number of atoms                ... 12
Central differences            ... used
Translation invariance         ... used
Number of displacements        ... 72 - 6
Numerical increment            ... 5.000e-03 bohr
IR-spectrum generation         ... on
Raman-spectrum generation      ... off
Surface Crossing Hessian       ... off

The output will be reduced. Please look at the following files:
SCF program output             ... >double_ring_6_6_d1.90_m1_r2scan_numfreq.lastscf
Integral program output        ... >double_ring_6_6_d1.90_m1_r2scan_numfreq.lastint
Gradient program output        ... >double_ring_6_6_d1.90_m1_r2scan_numfreq.lastgrad
Dipole moment program output   ... >double_ring_6_6_d1.90_m1_r2scan_numfreq.lastmom

List of participating nodes    ...  double_ring_6_6_d1.90_m1_r2scan_numfreq.hostnames

	<< Calculating gradient on displaced geometry   3 (of  66) >>
	<< Calculating gradient on displaced geometry   4 (of  66) >>
	<< Calculating gradient on displaced geometry   8 (of  66) >>
	<< Calculating gradient on displaced geometry   2 (of  66) >>
	<< Calculating gradient on displaced geometry   7 (of  66) >>
	<< Calculating gradient on displaced geometry   6 (of  66) >>
	<< Calculating gradient on displaced geometry   1 (of  66) >>
	<< Calculating gradient on displaced geometry   5 (of  66) >>
	<< Calculating gradient on displaced geometry   9 (of  66) >>
	<< Calculating gradient on displaced geometry  10 (of  66) >>
	<< Calculating gradient on displaced geometry  11 (of  66) >>
	<< Calculating gradient on displaced geometry  12 (of  66) >>
	<< Calculating gradient on displaced geometry  13 (of  66) >>
	<< Calculating gradient on displaced geometry  14 (of  66) >>
	<< Calculating gradient on displaced geometry  15 (of  66) >>
	<< Calculating gradient on displaced geometry  16 (of  66) >>
	<< Calculating gradient on displaced geometry  17 (of  66) >>
	<< Calculating gradient on displaced geometry  18 (of  66) >>
	<< Calculating gradient on displaced geometry  19 (of  66) >>
	<< Calculating gradient on displaced geometry  20 (of  66) >>
	<< Calculating gradient on displaced geometry  21 (of  66) >>
	<< Calculating gradient on displaced geometry  22 (of  66) >>
	<< Calculating gradient on displaced geometry  24 (of  66) >>
	<< Calculating gradient on displaced geometry  23 (of  66) >>
	<< Calculating gradient on displaced geometry  25 (of  66) >>
	<< Calculating gradient on displaced geometry  26 (of  66) >>
	<< Calculating gradient on displaced geometry  27 (of  66) >>
	<< Calculating gradient on displaced geometry  28 (of  66) >>
	<< Calculating gradient on displaced geometry  29 (of  66) >>
	<< Calculating gradient on displaced geometry  30 (of  66) >>
	<< Calculating gradient on displaced geometry  31 (of  66) >>
	<< Calculating gradient on displaced geometry  32 (of  66) >>
	<< Calculating gradient on displaced geometry  33 (of  66) >>
	<< Calculating gradient on displaced geometry  34 (of  66) >>
	<< Calculating gradient on displaced geometry  35 (of  66) >>
	<< Calculating gradient on displaced geometry  36 (of  66) >>
	<< Calculating gradient on displaced geometry  37 (of  66) >>
	<< Calculating gradient on displaced geometry  38 (of  66) >>
	<< Calculating gradient on displaced geometry  39 (of  66) >>
	<< Calculating gradient on displaced geometry  40 (of  66) >>
	<< Calculating gradient on displaced geometry  41 (of  66) >>
	<< Calculating gradient on displaced geometry  42 (of  66) >>
	<< Calculating gradient on displaced geometry  43 (of  66) >>
	<< Calculating gradient on displaced geometry  44 (of  66) >>
	<< Calculating gradient on displaced geometry  45 (of  66) >>
	<< Calculating gradient on displaced geometry  46 (of  66) >>
	<< Calculating gradient on displaced geometry  47 (of  66) >>
	<< Calculating gradient on displaced geometry  48 (of  66) >>
	<< Calculating gradient on displaced geometry  49 (of  66) >>
	<< Calculating gradient on displaced geometry  50 (of  66) >>
	<< Calculating gradient on displaced geometry  51 (of  66) >>
	<< Calculating gradient on displaced geometry  52 (of  66) >>
	<< Calculating gradient on displaced geometry  53 (of  66) >>
	<< Calculating gradient on displaced geometry  54 (of  66) >>
	<< Calculating gradient on displaced geometry  55 (of  66) >>
	<< Calculating gradient on displaced geometry  56 (of  66) >>
	<< Calculating gradient on displaced geometry  57 (of  66) >>
	<< Calculating gradient on displaced geometry  58 (of  66) >>
	<< Calculating gradient on displaced geometry  59 (of  66) >>
	<< Calculating gradient on displaced geometry  60 (of  66) >>
	<< Calculating gradient on displaced geometry  61 (of  66) >>
	<< Calculating gradient on displaced geometry  62 (of  66) >>
	<< Calculating gradient on displaced geometry  63 (of  66) >>
	<< Calculating gradient on displaced geometry  64 (of  66) >>
	<< Calculating gradient on displaced geometry  65 (of  66) >>
	<< Calculating gradient on displaced geometry  66 (of  66) >>

-----------------------
VIBRATIONAL FREQUENCIES
-----------------------

Scaling factor for frequencies =  1.000000000  (already applied!)

     0:       0.00 cm**-1
     1:       0.00 cm**-1
     2:       0.00 cm**-1
     3:       0.00 cm**-1
     4:       0.00 cm**-1
     5:       0.00 cm**-1
     6:     272.26 cm**-1
     7:     273.31 cm**-1
     8:     329.80 cm**-1
     9:     331.53 cm**-1
    10:     400.20 cm**-1
    11:     400.65 cm**-1
    12:     520.16 cm**-1
    13:     520.24 cm**-1
    14:     638.18 cm**-1
    15:     638.31 cm**-1
    16:     645.53 cm**-1
    17:     702.30 cm**-1
    18:     704.95 cm**-1
    19:     718.10 cm**-1
    20:     718.93 cm**-1
    21:     733.05 cm**-1
    22:     742.95 cm**-1
    23:     747.33 cm**-1
    24:     747.34 cm**-1
    25:     900.44 cm**-1
    26:     912.14 cm**-1
    27:     912.24 cm**-1
    28:     941.82 cm**-1
    29:     941.91 cm**-1
    30:    1083.70 cm**-1
    31:    1083.99 cm**-1
    32:    1136.68 cm**-1
    33:    1138.81 cm**-1
    34:    1142.71 cm**-1
    35:    1143.95 cm**-1


------------
NORMAL MODES
------------

These modes are the Cartesian displacements weighted by the diagonal matrix
M(i,i)=1/sqrt(m[i]) where m[i] is the mass of the displaced atom
Thus, these vectors are normalized but *not* orthogonal

                  0          1          2          3          4          5    
      0       0.000000   0.000000   0.000000   0.000000   0.000000   0.000000
      1       0.000000   0.000000   0.000000   0.000000   0.000000   0.000000
      2       0.000000   0.000000   0.000000   0.000000   0.000000   0.000000
      3       0.000000   0.000000   0.000000   0.000000   0.000000   0.000000
      4       0.000000   0.000000   0.000000   0.000000   0.000000   0.000000
      5       0.000000   0.000000   0.000000   0.000000   0.000000   0.000000
      6       0.000000   0.000000   0.000000   0.000000   0.000000   0.000000
      7       0.000000   0.000000   0.000000   0.000000   0.000000   0.000000
      8       0.000000   0.000000   0.000000   0.000000   0.000000   0.000000
      9       0.000000   0.000000   0.000000   0.000000   0.000000   0.000000
     10       0.000000   0.000000   0.000000   0.000000   0.000000   0.000000
     11       0.000000   0.000000   0.000000   0.000000   0.000000   0.000000
     12       0.000000   0.000000   0.000000   0.000000   0.000000   0.000000
     13       0.000000   0.000000   0.000000   0.000000   0.000000   0.000000
     14       0.000000   0.000000   0.000000   0.000000   0.000000   0.000000
     15       0.000000   0.000000   0.000000   0.000000   0.000000   0.000000
     16       0.000000   0.000000   0.000000   0.000000   0.000000   0.000000
     17       0.000000   0.000000   0.000000   0.000000   0.000000   0.000000
     18       0.000000   0.000000   0.000000   0.000000   0.000000   0.000000
     19       0.000000   0.000000   0.000000   0.000000   0.000000   0.000000
     20       0.000000   0.000000   0.000000   0.000000   0.000000   0.000000
     21       0.000000   0.000000   0.000000   0.000000   0.000000   0.000000
     22       0.000000   0.000000   0.000000   0.000000   0.000000   0.000000
     23       0.000000   0.000000   0.000000   0.000000   0.000000   0.000000
     24       0.000000   0.000000   0.000000   0.000000   0.000000   0.000000
     25       0.000000   0.000000   0.000000   0.000000   0.000000   0.000000
     26       0.000000   0.000000   0.000000   0.000000   0.000000   0.000000
     27       0.000000   0.000000   0.000000   0.000000   0.000000   0.000000
     28       0.000000   0.000000   0.000000   0.000000   0.000000   0.000000
     29       0.000000   0.000000   0.000000   0.000000   0.000000   0.000000
     30       0.000000   0.000000   0.000000   0.000000   0.000000   0.000000
     31       0.000000   0.000000   0.000000   0.000000   0.000000   0.000000
     32       0.000000   0.000000   0.000000   0.000000   0.000000   0.000000
     33       0.000000   0.000000   0.000000   0.000000   0.000000   0.000000
     34       0.000000   0.000000   0.000000   0.000000   0.000000   0.000000
     35       0.000000   0.000000   0.000000   0.000000   0.000000   0.000000
                  6          7          8          9         10         11    
      0      -0.269123   0.280251  -0.004964   0.312546  -0.388150   0.004566
      1       0.016661   0.017461   0.120898   0.000496  -0.001464  -0.112360
      2      -0.084143   0.088040  -0.001671   0.234656  -0.045136   0.000680
      3       0.149303  -0.124284   0.189546   0.012714   0.007675  -0.220925
      4       0.224111  -0.249989   0.207826  -0.188384   0.214088  -0.263639
      5       0.082159  -0.085884   0.203624  -0.116258   0.022121  -0.037899
      6       0.118232  -0.154041   0.189609  -0.012235  -0.014344  -0.220694
      7      -0.241825   0.233645  -0.206257  -0.188060   0.222394   0.257572
      8      -0.083688   0.085119  -0.202832  -0.117623   0.023168   0.037263
      9      -0.270533   0.279606  -0.002661  -0.309813   0.389565  -0.006210
     10       0.017884   0.016123  -0.121045  -0.000635   0.001529   0.112127
     11       0.085764  -0.087399  -0.000214   0.234082  -0.045245   0.000622
     12       0.151259  -0.125901  -0.185898  -0.013951  -0.008385   0.221725
     13       0.227187  -0.251422  -0.201368   0.186082  -0.215410   0.264878
     14      -0.085665   0.088901   0.202074  -0.115841   0.022132  -0.037975
     15       0.120518  -0.155703  -0.185775   0.011061   0.013520   0.221446
     16      -0.242577   0.235944   0.199775   0.190018  -0.221014  -0.258989
     17       0.084894  -0.087750  -0.201233  -0.118085   0.023018   0.037248
     18       0.234416   0.240763  -0.203043  -0.189786  -0.221844  -0.258919
     19       0.155579   0.117652  -0.187595   0.011157  -0.014028  -0.221349
     20      -0.088241  -0.083300   0.201959   0.117869   0.023187   0.037462
     21       0.017409  -0.018252  -0.120734  -0.000515  -0.001589  -0.112347
     22      -0.278404  -0.270896  -0.000873   0.312121   0.389180  -0.004465
     23       0.086520   0.084448   0.001065  -0.234329  -0.045440   0.000583
     24      -0.248482  -0.227648  -0.204324   0.188166   0.214778  -0.263841
     25       0.123590   0.151782   0.187303   0.012614  -0.008019   0.221243
     26      -0.085948  -0.085799  -0.202689   0.116447   0.022100  -0.037825
     27       0.234403   0.244141   0.202507   0.187799   0.222087   0.258014
     28       0.153620   0.121292   0.187536  -0.012317   0.013999   0.220986
     29       0.086649   0.086114   0.201739   0.117536   0.023290   0.037339
     30       0.015972  -0.016113   0.120872   0.000355   0.001524   0.112331
     31      -0.281323  -0.269408   0.001600  -0.309394  -0.389090   0.005746
     32      -0.089075  -0.084821   0.001140  -0.234103  -0.045404   0.000536
     33      -0.253374  -0.222822   0.204867  -0.186341  -0.214835   0.264855
     34       0.125497   0.147814  -0.187800  -0.013697   0.007833  -0.221750
     35       0.090773   0.082333  -0.202962   0.115649   0.022209  -0.038033
                 12         13         14         15         16         17    
      0       0.311691   0.051873   0.013884   0.247448   0.000060   0.000261
      1      -0.025496   0.153318   0.005971   0.000051  -0.287912  -0.153611
      2      -0.208508  -0.034708  -0.017468  -0.322732   0.000255  -0.005811
      3       0.178274   0.099948  -0.107356  -0.061187   0.248391  -0.063805
      4       0.025587   0.280363  -0.191328  -0.091984  -0.147691   0.036119
      5      -0.073334  -0.198322   0.290516   0.148069  -0.003350   0.333318
      6       0.200870  -0.036708  -0.099862   0.072650   0.248462  -0.061166
      7      -0.114657   0.256972   0.180012  -0.113493   0.147450  -0.037522
      8       0.133406  -0.163877  -0.272272   0.180950   0.003587  -0.331249
      9       0.311404   0.051710  -0.014990  -0.247464  -0.000363   0.002624
     10      -0.025649   0.153333  -0.005966   0.000147   0.288257   0.150950
     11       0.208384   0.034697  -0.019051  -0.322279  -0.000675   0.003794
     12       0.178188   0.100043   0.107475   0.060881  -0.248207   0.061380
     13       0.025229   0.280637   0.191931   0.092033   0.147880  -0.037370
     14       0.072954   0.198510   0.291749   0.147954  -0.002461   0.324242
     15       0.201146  -0.036609   0.100028  -0.072734  -0.248253   0.061433
     16      -0.115243   0.256910  -0.180852   0.113686  -0.147943   0.041537
     17      -0.133543   0.163933  -0.273246   0.181220   0.002575  -0.324936
     18      -0.256469  -0.115761   0.180655  -0.112443  -0.147880   0.034626
     19      -0.036495  -0.201520   0.100533  -0.072754   0.248310  -0.065655
     20      -0.163373  -0.133510   0.272182  -0.179361   0.002981  -0.333841
     21      -0.153392  -0.025583  -0.006547   0.000597  -0.287980  -0.152716
     22       0.051918  -0.310950   0.014212   0.247283  -0.000112  -0.000116
     23       0.035025  -0.208431   0.018530   0.321295  -0.000350   0.003896
     24      -0.280738   0.026094   0.191268   0.091602  -0.148331   0.040878
     25       0.100053  -0.178572  -0.107221  -0.060531  -0.248053   0.060697
     26       0.198140  -0.073435  -0.289982  -0.148047  -0.002125   0.323657
     27      -0.256947  -0.115411  -0.179560   0.113506   0.148298  -0.036627
     28      -0.036644  -0.201237  -0.100120   0.073009  -0.247957   0.061518
     29       0.163923   0.134054   0.270810  -0.180799   0.001933  -0.323942
     30      -0.153355  -0.025490   0.006517  -0.000632   0.288201   0.151350
     31       0.051442  -0.310751  -0.014959  -0.248241  -0.000538   0.004051
     32      -0.034022   0.207743   0.019426   0.322535   0.000873  -0.004217
     33      -0.280671   0.025895  -0.191513  -0.092223   0.147603  -0.038238
     34       0.099957  -0.178503   0.107788   0.060795   0.248310  -0.060598
     35      -0.199051   0.073346  -0.291195  -0.148805  -0.003243   0.335090
                 18         19         20         21         22         23    
      0       0.016945  -0.009771   0.118816  -0.286885   0.280176  -0.001948
      1      -0.000514   0.096210   0.011060   0.000122  -0.003273  -0.150854
      2      -0.379422   0.039079  -0.363919  -0.022632   0.091480   0.005910
      3       0.121932   0.086361  -0.049047  -0.137269   0.137770   0.138776
      4      -0.050956  -0.035959  -0.095396  -0.253475   0.245181   0.076560
      5       0.192409  -0.049603   0.380817   0.014935   0.088783   0.291697
      6      -0.122548  -0.076130  -0.068785   0.135641  -0.142476  -0.139100
      7      -0.049902  -0.058365   0.090272  -0.253256   0.237621   0.074099
      8       0.189289   0.024130  -0.383129   0.006340   0.075546   0.295543
      9      -0.014954  -0.015908   0.114325   0.289842  -0.273048   0.003028
     10      -0.001046   0.099928   0.008384   0.000619  -0.001196  -0.151666
     11      -0.376927  -0.040130   0.365853  -0.019464   0.074854  -0.004033
     12      -0.121799   0.084318  -0.051882   0.136596  -0.140344   0.142708
     13       0.050836  -0.043877  -0.098272   0.252866  -0.236065   0.080711
     14       0.185628   0.058926  -0.389298   0.007435   0.073384  -0.296029
     15       0.120943  -0.069196  -0.069039  -0.137866   0.137083  -0.143460
     16       0.051024  -0.061874   0.084027   0.253361  -0.241810   0.077702
     17       0.189832  -0.031320   0.384792   0.014198   0.079843  -0.298135
     18       0.051513   0.088161   0.057677   0.254858   0.242560   0.137353
     19      -0.122041   0.067806  -0.075249   0.137060   0.140808  -0.075793
     20       0.187621   0.382743   0.034497   0.010304  -0.094195  -0.156616
     21      -0.000205   0.008486  -0.096070  -0.001615  -0.005013   0.000308
     22      -0.014467  -0.117911  -0.014477   0.288088   0.278163   0.148418
     23      -0.379390  -0.363128  -0.038857  -0.023172  -0.082823  -0.356414
     24      -0.051194  -0.097319   0.041039  -0.253364  -0.237696  -0.137467
     25      -0.122297   0.054320   0.085356   0.137785   0.135532  -0.079765
     26       0.186835   0.391252   0.046280   0.013921  -0.074703  -0.153728
     27      -0.050661   0.083683   0.063410  -0.252704  -0.236947   0.142484
     28       0.120722   0.070025  -0.075292  -0.137226  -0.137045  -0.074774
     29       0.192626  -0.391339  -0.027107   0.010109  -0.069792   0.157703
     30      -0.000633   0.011982  -0.098004  -0.001187  -0.003089  -0.000531
     31       0.017375  -0.120739  -0.008673  -0.289165  -0.273821   0.153592
     32      -0.378433   0.358802   0.043773  -0.020434  -0.082442   0.361568
     33       0.050662  -0.094668   0.037559   0.253952   0.241024  -0.142151
     34       0.121267   0.050436   0.088259  -0.136778  -0.144095  -0.078230
     35       0.189931  -0.379413  -0.053702   0.008461  -0.079933   0.152533
                 24         25         26         27         28         29    
      0      -0.146148  -0.080954   0.218275   0.036359   0.173369  -0.152677
      1      -0.000629   0.000622   0.054905  -0.325470  -0.171079  -0.194642
      2      -0.352907   0.278077   0.050490   0.008409  -0.170377   0.150056
      3       0.081853  -0.040391  -0.247600   0.191619   0.064915   0.240440
      4      -0.134023  -0.067599   0.238271   0.103732   0.229099  -0.034621
      5      -0.155188   0.276457   0.009946   0.066993  -0.209263  -0.069603
      6       0.073430   0.038403  -0.171019  -0.261363  -0.231819  -0.093984
      7       0.144668  -0.070827  -0.258669   0.020722  -0.063220   0.222312
      8       0.164477   0.275603  -0.032558   0.059555  -0.044509  -0.215375
      9      -0.157480   0.084392   0.217563   0.036543   0.173021  -0.152363
     10      -0.001291   0.000112   0.054602  -0.325621  -0.171164  -0.194258
     11       0.357085   0.279615  -0.052589  -0.008281   0.168948  -0.149933
     12       0.075443   0.038500  -0.247767   0.191342   0.064086   0.240033
     13      -0.143407   0.070911   0.237527   0.104101   0.228823  -0.034501
     14       0.159209   0.275548  -0.012422  -0.066210   0.207668   0.069874
     15       0.079395  -0.040838  -0.170903  -0.261468  -0.231327  -0.093531
     16       0.134719   0.067038  -0.259525   0.020946  -0.063703   0.222779
[...]
     20       0.293131  -0.274518   0.060135   0.031606   0.216386  -0.043810
     21       0.152958  -0.000789   0.325440   0.054144  -0.193424   0.171197
     22       0.009066  -0.082216   0.036338  -0.218028   0.153153   0.172628
     23      -0.005820  -0.279326  -0.007778   0.051265   0.150681   0.169964
     24      -0.086119   0.069091  -0.103878   0.238342  -0.035756  -0.228550
     25       0.142529  -0.038592   0.191984   0.247382  -0.241114   0.065320
     26      -0.299096  -0.276373  -0.065732   0.010561  -0.068941   0.208070
     27      -0.083873   0.070773  -0.021359  -0.258551   0.222165   0.063453
     28      -0.143809   0.037642  -0.261394   0.171281   0.093815  -0.231629
     29      -0.295913  -0.276855  -0.057812  -0.032151  -0.214915   0.043279
     30       0.152594  -0.000761   0.325286   0.054284  -0.193278   0.171718
     31      -0.006864   0.083640   0.035588  -0.217868   0.152511   0.173036
     32      -0.000266  -0.278074   0.010107  -0.052004  -0.149177  -0.169895
     33      -0.072051  -0.069680  -0.103161   0.237801  -0.034926  -0.229120
     34       0.135274   0.040070   0.191656   0.247338  -0.241096   0.065740
     35       0.293772  -0.277779   0.067942  -0.011063   0.070550  -0.208417
                 30         31         32         33         34         35    
      0      -0.032230  -0.040581  -0.091769   0.000143   0.123404   0.001047
      1      -0.314382   0.246373  -0.004689  -0.384375  -0.001143  -0.367385
      2       0.052159   0.065875  -0.080170   0.000627  -0.144134  -0.000075
      3      -0.251422   0.230834   0.312198  -0.127453  -0.304100  -0.107713
      4       0.184608  -0.088778  -0.126408   0.164771   0.103354   0.186145
      5      -0.053327  -0.067258   0.038687   0.068765   0.072136  -0.123085
      6       0.282496  -0.190391  -0.314993  -0.127138   0.304137  -0.101589
      7       0.128957  -0.158068  -0.130782  -0.164515   0.103468  -0.183954
      8       0.052523   0.066779   0.039855  -0.069562   0.071124   0.123157
      9      -0.031696  -0.040858   0.091802   0.000091  -0.123551  -0.000927
     10      -0.312438   0.247047   0.004265   0.384870  -0.000983   0.367732
     11      -0.052018  -0.067266  -0.080199   0.001296  -0.144169   0.000220
     12      -0.251938   0.231093  -0.313165   0.128105   0.302758   0.107723
     13       0.183816  -0.089295   0.126932  -0.165161  -0.102357  -0.186151
     14       0.052112   0.066229   0.038819   0.068365   0.073163  -0.123571
     15       0.284539  -0.190202   0.315844   0.126315  -0.302380   0.101043
     16       0.130231  -0.157900   0.130964   0.164341  -0.102509   0.183572
     17      -0.053847  -0.067721   0.039478  -0.069011   0.071165   0.122933
     18       0.158398   0.129515  -0.128935  -0.169292  -0.102645   0.180988
     19      -0.191307  -0.283024   0.315903   0.128112   0.301067  -0.102064
     20       0.066521  -0.051774  -0.037377   0.065510   0.072868   0.125815
     21      -0.246452  -0.312770  -0.000736   0.395558   0.001901  -0.356922
     22      -0.040180   0.032171  -0.092734   0.000918  -0.122655   0.000126
     23      -0.066427   0.053155   0.078736   0.000238  -0.144591  -0.001106
     24       0.088348   0.183556   0.130011  -0.171173   0.100766   0.180118
     25       0.228828   0.251181   0.316669  -0.133471   0.300752   0.099817
     26       0.065818  -0.052239  -0.039749  -0.065967   0.073066  -0.125030
     27       0.157995   0.130068   0.129500   0.168305   0.103627  -0.180839
     28      -0.188793  -0.283572  -0.316741  -0.126746  -0.302394   0.102095
     29      -0.066186   0.052541  -0.037725   0.065576   0.071843   0.126047
     30      -0.247831  -0.314012   0.000166  -0.393792  -0.003316   0.356839
     31      -0.041279   0.032025   0.092795  -0.000863   0.122907  -0.000082
     32       0.066901  -0.051982   0.079396  -0.000113  -0.144688  -0.000996
     33       0.089793   0.183749  -0.129924   0.170330  -0.100600  -0.179767
     34       0.231938   0.251840  -0.316173   0.132119  -0.299507  -0.099852
     35      -0.064230   0.053661  -0.039750  -0.065725   0.072217  -0.124307


-----------
IR SPECTRUM
-----------

 Mode   freq       eps      Int      T**2         TX        TY        TZ
       cm**-1   L/(mol*cm) km/mol    a.u.
----------------------------------------------------------------------------
  6:    272.26   0.000002    0.01  0.000002  ( 0.001525  0.000292 -0.000052)
  7:    273.31   0.000000    0.00  0.000000  ( 0.000136  0.000113 -0.000068)
  8:    329.80   0.000001    0.00  0.000001  (-0.000650  0.000523  0.000089)
  9:    331.53   0.000001    0.00  0.000001  ( 0.000769  0.000019 -0.000350)
 10:    400.20   0.000003    0.02  0.000002  ( 0.000619 -0.000066  0.001439)
 11:    400.65   0.000001    0.01  0.000001  (-0.000794  0.000626 -0.000002)
 12:    520.16   0.000000    0.00  0.000000  ( 0.000293 -0.000322  0.000077)
 13:    520.24   0.000003    0.02  0.000002  (-0.000276  0.001387 -0.000159)
 14:    638.18   0.000001    0.00  0.000000  ( 0.000422 -0.000301  0.000130)
 15:    638.31   0.000000    0.00  0.000000  ( 0.000098 -0.000036  0.000352)
 16:    645.53   0.000001    0.00  0.000000  (-0.000344 -0.000585  0.000013)
 17:    702.30   0.000000    0.00  0.000000  ( 0.000035 -0.000042 -0.000228)
 18:    704.95   0.000032    0.16  0.000014  (-0.000340 -0.000572  0.003701)
 19:    718.10   0.000003    0.02  0.000001  ( 0.000363  0.001035  0.000332)
 20:    718.93   0.000003    0.02  0.000001  (-0.001157 -0.000106  0.000335)
 21:    733.05   0.003113   15.73  0.001325  (-0.000673  0.000280 -0.036398)
 22:    742.95   0.000003    0.01  0.000001  (-0.001058  0.000026  0.000113)
 23:    747.33   0.001283    6.48  0.000536  ( 0.000168 -0.023146 -0.000082)
 24:    747.34   0.001298    6.56  0.000542  ( 0.023275 -0.000495 -0.000444)
 25:    900.44   0.000000    0.00  0.000000  ( 0.000152 -0.000238  0.000231)
 26:    912.14   0.000001    0.00  0.000000  ( 0.000427 -0.000299  0.000018)
 27:    912.24   0.000002    0.01  0.000001  (-0.000418 -0.000778  0.000047)
 28:    941.82   0.000155    0.78  0.000051  (-0.005586 -0.004493 -0.000113)
 29:    941.91   0.000183    0.92  0.000061  ( 0.005397 -0.005610  0.000152)
 30:   1083.70   0.000008    0.04  0.000002  (-0.000823 -0.001258  0.000054)
 31:   1083.99   0.000005    0.02  0.000001  (-0.001153  0.000164 -0.000021)
 32:   1136.68   0.000001    0.01  0.000000  ( 0.000200  0.000528  0.000022)
 33:   1138.81   0.000001    0.00  0.000000  (-0.000287 -0.000248  0.000011)
 34:   1142.71   0.000039    0.20  0.000011  ( 0.000156  0.000427 -0.003237)
 35:   1143.95   0.000001    0.00  0.000000  ( 0.000318  0.000198  0.000072)

* The epsilon (eps) is given for a Dirac delta lineshape.
** The dipole moment derivative (T) already includes vibrational overlap.

The first frequency considered to be a vibration is 6
The total number of vibrations considered is 30


--------------------------
THERMOCHEMISTRY AT 298.15K
--------------------------

Temperature         ...   298.15 K
Pressure            ...     1.00 atm
Total Mass          ...   129.72 AMU
Quasi RRHO          ...     True
Cut-Off Frequency   ...     1.00 cm^-1

Throughout the following assumptions are being made:
  (1) The electronic state is orbitally nondegenerate
  (2) There are no thermally accessible electronically excited states
  (3) Hindered rotations indicated by low frequency modes are not
      treated as such but are treated as vibrations and this may
      cause some error
  (4) All equations used are the standard statistical mechanics
      equations for an ideal gas
  (5) All vibrations are strictly harmonic

freq.     272.26  E(vib)   ...       0.29 
freq.     273.31  E(vib)   ...       0.29 
freq.     329.80  E(vib)   ...       0.24 
freq.     331.53  E(vib)   ...       0.24 
freq.     400.20  E(vib)   ...       0.19 
freq.     400.65  E(vib)   ...       0.19 
freq.     520.16  E(vib)   ...       0.13 
freq.     520.24  E(vib)   ...       0.13 
freq.     638.18  E(vib)   ...       0.09 
freq.     638.31  E(vib)   ...       0.09 
freq.     645.53  E(vib)   ...       0.09 
freq.     702.30  E(vib)   ...       0.07 
freq.     704.95  E(vib)   ...       0.07 
freq.     718.10  E(vib)   ...       0.07 
freq.     718.93  E(vib)   ...       0.07 
freq.     733.05  E(vib)   ...       0.06 
freq.     742.95  E(vib)   ...       0.06 
freq.     747.33  E(vib)   ...       0.06 
freq.     747.34  E(vib)   ...       0.06 
freq.     900.44  E(vib)   ...       0.03 
freq.     912.14  E(vib)   ...       0.03 
freq.     912.24  E(vib)   ...       0.03 
freq.     941.82  E(vib)   ...       0.03 
freq.     941.91  E(vib)   ...       0.03 
freq.    1083.70  E(vib)   ...       0.02 
freq.    1083.99  E(vib)   ...       0.02 
freq.    1136.68  E(vib)   ...       0.01 
freq.    1138.81  E(vib)   ...       0.01 
freq.    1142.71  E(vib)   ...       0.01 
freq.    1143.95  E(vib)   ...       0.01 

------------
INNER ENERGY
------------

The inner energy is: U= E(el) + E(ZPE) + E(vib) + E(rot) + E(trans)
    E(el)   - is the total energy from the electronic structure calculation
              = E(kin-el) + E(nuc-el) + E(el-el) + E(nuc-nuc)
    E(ZPE)  - the the zero temperature vibrational energy from the frequency calculation
    E(vib)  - the the finite temperature correction to E(ZPE) due to population
              of excited vibrational states
    E(rot)  - is the rotational thermal energy
    E(trans)- is the translational thermal energy

Summary of contributions to the inner energy U:
Electronic energy                ...   -297.80523905 Eh
Zero point energy                ...      0.05040110 Eh      31.63 kcal/mol
Thermal vibrational correction   ...      0.00433832 Eh       2.72 kcal/mol
Thermal rotational correction    ...      0.00141627 Eh       0.89 kcal/mol
Thermal translational correction ...      0.00141627 Eh       0.89 kcal/mol
-----------------------------------------------------------------------
Total thermal energy                   -297.74766708 Eh


Summary of corrections to the electronic energy:
(perhaps to be used in another calculation)
Total thermal correction                  0.00717086 Eh       4.50 kcal/mol
Non-thermal (ZPE) correction              0.05040110 Eh      31.63 kcal/mol
-----------------------------------------------------------------------
Total correction                          0.05757197 Eh      36.13 kcal/mol


--------
ENTHALPY
--------

The enthalpy is H = U + kB*T
                kB is Boltzmann's constant
Total thermal energy              ...   -297.74766708 Eh 
Thermal Enthalpy correction       ...      0.00094421 Eh       0.59 kcal/mol
-----------------------------------------------------------------------
Total Enthalpy                    ...   -297.74672287 Eh


WARNING (ORCA/SYM): The cycle centers form an unrecognized polyhedron in function
TPolytope::UnrecognizedPolyhedron() const.

WARNING (ORCA/SYM): None of the atom subsets could be assigned a point group.
Please take all warnings, especially the ORCA/SYM warnings, very seriously!!!

WARNING (ORCA/SYM): An inconsistency has occured during symmetry recognition.
Using C1 as a fallback. If this point group appears to be too low, please try
increasing the cleaning tolerance using option SymThresh in the %Symmetry input
block. If the problem persists, you may post a message in the ORCA forum.


Note: Only C1 symmetry has been detected, increase convergence thresholds 
      if your molecule has a higher symmetry. Symmetry factor of 1.0 is   
      used for the rotational entropy correction. 
 

Note: Rotational entropy computed according to Herzberg 
Infrared and Raman Spectra, Chapter V,1, Van Nostrand Reinhold, 1945 
Point Group:  C1, Symmetry Number:   1  
Rotational constants in cm-1:     0.070242     0.070242     0.049518 

Vibrational entropy computed according to the QRRHO of S. Grimme
Chem.Eur.J. 2012 18 9955 using a reference frequency of 100.0 cm-1


-------
ENTROPY
-------

The entropy contributions are T*S = T*(S(el)+S(vib)+S(rot)+S(trans))
     S(el)   - electronic entropy
     S(vib)  - vibrational entropy
     S(rot)  - rotational entropy
     S(trans)- translational entropy
The entropies will be listed as multiplied by the temperature to get
units of energy

Electronic entropy                ...      0.00000000 Eh      0.00 kcal/mol
Vibrational entropy               ...      0.00626692 Eh      3.93 kcal/mol
Rotational entropy                ...      0.01343720 Eh      8.43 kcal/mol
Translational entropy             ...      0.01923977 Eh     12.07 kcal/mol
-----------------------------------------------------------------------
Final entropy term                ...      0.03894389 Eh     24.44 kcal/mol

In case the symmetry of your molecule has not been determined correctly
or in case you have a reason to use a different symmetry number we print 
out the resulting rotational entropy values for sn=1,12:

 non-linear molecules -----------------------------------
|  sn= 1 | S(rot)=       0.01343720 Eh      8.43 kcal/mol|
|  sn= 2 | S(rot)=       0.01278275 Eh      8.02 kcal/mol|
|  sn= 3 | S(rot)=       0.01239991 Eh      7.78 kcal/mol|
|  sn= 4 | S(rot)=       0.01212829 Eh      7.61 kcal/mol|
|  sn= 5 | S(rot)=       0.01191760 Eh      7.48 kcal/mol|
|  sn= 6 | S(rot)=       0.01174546 Eh      7.37 kcal/mol|
|  sn= 7 | S(rot)=       0.01159991 Eh      7.28 kcal/mol|
|  sn= 8 | S(rot)=       0.01147383 Eh      7.20 kcal/mol|
|  sn= 9 | S(rot)=       0.01136262 Eh      7.13 kcal/mol|
|  sn=10 | S(rot)=       0.01126315 Eh      7.07 kcal/mol|
|  sn=11 | S(rot)=       0.01117316 Eh      7.01 kcal/mol|
|  sn=12 | S(rot)=       0.01109100 Eh      6.96 kcal/mol|
 linear molecules ---------------------------------------
|  Dinfh | S(rot)=       0.00816347 Eh      5.12 kcal/mol|
|  Cinfv | S(rot)=       0.00881792 Eh      5.53 kcal/mol|
 --------------------------------------------------------


-------------------
GIBBS FREE ENERGY
-------------------

The Gibbs free energy is G = H - T*S

Total enthalpy                    ...   -297.74672287 Eh 
Total entropy correction          ...     -0.03894389 Eh    -24.44 kcal/mol
-----------------------------------------------------------------------
Final Gibbs free energy         ...   -297.78566676 Eh

For completeness - the Gibbs free energy minus the electronic energy
G-E(el)                           ...      0.01957229 Eh     12.28 kcal/mol



--------------------------------
SUGGESTED CITATIONS FOR THIS RUN
--------------------------------

Below you find a list of papers that are relevant to this ORCA run
We neither can nor want to force you to cite these papers, but we appreciate if you do
You receive ORCA, which is the product of decades of hard work by many enthusiastic individuals, for free
The only thing we kindly ask in return is that you cite our papers,
We deeply appreciate it, if you show your appreciation for ORCA by not just citing the generic ORCA reference.

Please note that relegating all ORCA citations to the supporting information does *not* help us.
SI sections are not indexed - citations you put there will not count into any citation statistics
But we need these citations in order to attract the funding resources that allow us to do what we are doing

Therefore, if you are a happy ORCA user, please consider citing a few of the papers listed below in the main body of your paper

In addition to the list printed below, the program has created the file double_ring_6_6_d1.90_m1_r2scan_numfreq.bibtex that contains the list in bibtex format
You can import this file easily into all common literature databanks and citation aid programs

It goes without saying that in many instances, there are alternative algorithms to achieve similar
results as the ones you have gotten from ORCA. It is, of course, also the case that in some instances
ORCA just re-implements algorithms worked out by others. We are fully aware of that and we are also
fully appreciative of our colleagues work. Hence this citation list should not be read as indicating
that the listed papers, which are focused on our own work, are the only ones worth citing. It simply
meant to make it easier for users to cite ORCA specific papers. It is not a substitute for doing your
own literature research and citing the relevant literature in a scientifically appropriate manner.

List of essential papers. We consider these as the minimum necessary citations

  1. Grimme, S.; Hansen, A.; Ehlert, S.; Mewes, J.
     r2SCAN-3c: A 'Swiss army knife' composite electronic-structure method
     J. Chem. Phys. 2021 154 , 064103
     doi.org/10.1063/5.0040021
  2. Neese, F.
     Software update: the ORCA program system, version 6.0
     WIRES Comput. Molec. Sci. 2025 15(1), e70019
     doi.org/10.1002/wcms.70019

List of papers to cite with high priority. The work reported in these papers was absolutely
necessary for this run to complete.
Our perspective: the developers of density functionals and basis sets usually get cited in chemistry papers
Good! But without the algorithms to do something with them, the functionals or basis sets would not do anything.
Hence, in our opinion, the algorithm design and method developments papers are equally worthy of getting cited

  1. Neese, F.
     An improvement of the resolution of the identity approximation for the formation of the Coulomb matrix
     J. Comp. Chem. 2003 24(14), 1740-1747
     doi.org/10.1002/jcc.10318
  2. Caldeweyher, E.; Bannwarth, C.; Grimme, S.
     Extension of the D3 dispersion coefficient model
     J. Chem. Phys. 2017 147 , 034112
     doi.org/10.1063/1.4993215
  3. Lehtola, S.; Steigemann, C.; Oliveira, M.; Marques, M.
     Recent developments in Libxc - A comprehensive library of functionals for density functional theory
     Software X 2018 7 , 
     doi.org/10.1016/j.softx.2017.11.002
  4. Caldeweyher, E.; Ehlert, S.; Hansen, A.; Neugebauer, H.; Spicher, S.; Bannwarth, C.; Grimme, S.
     A generally applicable atomic-charge dependent London dispersion correction
     J. Chem. Phys. 2019 150 , 154122
     doi.org/10.1063/1.5090222
  5. Neese, F.
     The SHARK Integral Generation and Digestion System
     J. Comp. Chem. 2022 44(3), 381
     doi.org/10.1002/jcc.26942

List of suggested additional citations. These are papers that are important in the 'surrounding' of 
of this run, or papers that preceded the highly important papers. If you like your results we are grateful for a citation.

  1. Neese, F.
     The ORCA program system
     WIRES Comput. Molec. Sci. 2012 2(1), 73-78
     doi.org/10.1002/wcms.81
  2. Neese, F.
     Software update: the ORCA program system, version 4.0
     WIRES Comput. Molec. Sci. 2018 8(1), 1-6
     doi.org/10.1002/wcms.1327
  3. Neese, F.; Wennmohs, F.; Becker, U.; Riplinger, C.
     The ORCA quantum chemistry program package
     J. Chem. Phys. 2020 152(22), 224108
     doi.org/10.1063/5.0004608
  4. Neese, F.
     Software update: The ORCA program system—Version 5.0
     WIRES Comput. Molec. Sci. 2022 12(1), e1606
     doi.org/10.1002/wcms.1606

List of optional additional citations

  1. Neese, F.
     Approximate second-order SCF convergence for spin unrestricted wavefunctions
     Chem. Phys. Lett. 2000 325(1-3), 93-98
     doi.org/10.1016/s0009-2614(00)00662-x

Timings for individual modules:

Sum of individual times          ...      452.714 sec (=   7.545 min)
Startup calculation              ...        3.150 sec (=   0.053 min)   0.7 %
SCF iterations                   ...       23.075 sec (=   0.385 min)   5.1 %
Property calculations            ...        0.646 sec (=   0.011 min)   0.1 %
SCF Gradient evaluation          ...        5.445 sec (=   0.091 min)   1.2 %
Numerical frequency calculation  ...      420.398 sec (=   7.007 min)  92.9 %
                             ****ORCA TERMINATED NORMALLY****
TOTAL RUN TIME: 0 days 0 hours 7 minutes 18 seconds 163 msec
