
                                 *****************
                                 * O   R   C   A *
                                 *****************

                                            #,                                       
                                            ###                                      
                                            ####                                     
                                            #####                                    
                                            ######                                   
                                           ########,                                 
                                     ,,################,,,,,                         
                               ,,#################################,,                 
                          ,,##########################################,,             
                       ,#########################################, ''#####,          
                    ,#############################################,,   '####,        
                  ,##################################################,,,,####,       
                ,###########''''           ''''###############################       
              ,#####''   ,,,,##########,,,,          '''####'''          '####       
            ,##' ,,,,###########################,,,                        '##       
           ' ,,###''''                  '''############,,,                           
         ,,##''                                '''############,,,,        ,,,,,,###''
      ,#''                                            '''#######################'''  
     '                                                          ''''####''''         
             ,#######,   #######,   ,#######,      ##                                
            ,#'     '#,  ##    ##  ,#'     '#,    #''#        ,####,    ,#,          
            ##       ##  ##   ,#'  ##            #'  '#       #'       ,# #          
            ##       ##  #######   ##           ,######,      #####,      #          
            '#,     ,#'  ##    ##  '#,     ,#' ,#      #,     #,   #      #          
             '#######'   ##     ##  '#######'  #'      '#     '####' #    #          



                #########################################################
                #                        -***-                          #
                #          Department of theory and spectroscopy        #
                #                                                       #
                #                      Frank Neese                      #
                #                                                       #
                #     Directorship, Architecture, Infrastructure        #
                #                    SHARK, DRIVERS                     #
                #        Core code/Algorithms in most modules           #
                #                                                       #
                #        Max Planck Institute fuer Kohlenforschung      #
                #                Kaiser Wilhelm Platz 1                 #
                #                 D-45470 Muelheim/Ruhr                 #
                #                      Germany                          #
                #                                                       #
                #                  All rights reserved                  #
                #                        -***-                          #
                #########################################################


                         Program Version 6.1.1  -  RELEASE   -
                                (GIT: $487d211c$)
                          ($2025-11-21 10:33:24 +0100$)
                                                                         
                                  - NO-DMRG VERSION -                    
                                                                         


 With contributions from (in alphabetic order):
[Max-Planck-Institut fuer Kohlenforschung]                               
  Daniel Aravena         : Magnetic Suceptibility                        
  Michael Atanasov       : Ab Initio Ligand Field Theory (pilot matlab implementation)
  Alexander A. Auer      : GIAO ZORA, VPT2 properties, NMR spectrum      
  Ute Becker             : All parallelization in ORCA, NUMFREQ, NUMCALC 
  Giovanni Bistoni       : ED, misc. LED, open-shell LED, HFLD           
  Dmytro Bykov           : pre 5.0 version of the SCF Hessian            
  Marcos Casanova-Páez   : Triplet and SCS-CIS(D). UHF-(DLPNO)-IP/EA/STEOM-CCSD. UHF-CVS-IP/STEOM-CCSD   
  Vijay G. Chilkuri      : MRCI spin determinant printing, contributions to CSF-ICE 
  Pauline Colinet        : FMM embedding                                 
  Dipayan Datta          : RHF DLPNO-CCSD density                        
  Achintya Kumar Dutta   : EOM-CC, STEOM-CC                              
  Nicolas Foglia         : Exact transition moments, OPA infrastructure, MCD improvements    
  Dmitry Ganyushin       : Spin-Orbit,Spin-Spin,Magnetic field MRCI      
  Miquel Garcia-Rates    : C-PCM and meta-GGA Hessian, CCSD/C-PCM, Gaussian charge scheme 
  Tiago L. C. Gouveia    : GS-ROHF, GS-ROCIS                             
  Yang Guo               : DLPNO-NEVPT2, F12-NEVPT2, CIM, IAO-localization        
  Andreas Hansen         : Spin unrestricted coupled pair/coupled cluster methods 
  Ingolf Harden          : AUTO-CI MPn and infrastructure                
  Benjamin Helmich-Paris : MC-RPA, TRAH-(SCF,CASSCF), AVAS, COSX integrals, SCF dyn. polar., MC-PDFT, srDFT 
  Lee Huntington         : MR-EOM, pCC                                   
  Robert Izsak           : Overlap fitted RIJCOSX, COSX-SCS-MP3, EOM     
  Riya Kayal             : Wick's Theorem for AUTO-CI, AUTO-CI UHF-CCSDT 
  Emily Kempfer          : AUTO-CI RHF CISDT and CCSDT, approximate NEVPT4
  Christian Kollmar      : KDIIS, OOCD, Brueckner-CCSD(T), CCSD density, CASPT2, CASPT2-K, improved NEVPT2 
  Axel Koslowski         : Symmetry handling                             
  Simone Kossmann        : meta-GGA functionals, TD-DFT gradient, OOMP2, (MP2 Hessian; deprecated post 5.0) 
  Lucas Lang             : DCDCAS, Hyperfine gauge corrections, ICE-SOC+SSC
  Marvin Lechner         : AUTO-CI (C++ implementation), FIC-MRCC        
  Spencer Leger          : CASSCF response                               
  Dagmar Lenk            : GEPOL surface, SMD, ORCA-2-JSON               
  Dimitrios Liakos       : Extrapolation schemes; Compound Job, Property file
  Dimitrios Manganas     : Further ROCIS development; embedding schemes. LFT, Crystal Embedding 
  Dimitrios Pantazis     : SARC Basis sets                               
  Anastasios Papadopoulos: AUTO-CI, single reference methods and gradients 
  Taras Petrenko         : pre 6.0 DFT Hessian and TD-DFT gradient,  ECA, NRVS 
  Petra Pikulova         : Analytic Raman intensities                    
  Peter Pinski           : DLPNO-MP2, DLPNO-MP2 Gradient                 
  Shashank Vittal Rao    : ES-AILFT, MagRelax                            
  Christoph Reimann      : Effective Core Potentials                     
  Marius Retegan         : Local ZFS, SOC                                
  Christoph Riplinger    : Optimizer, TS searches, QM/MM, DLPNO-CCSD(T), (RO)-DLPNO pert. Triples 
  Michael Roemelt        : Original ROCIS implementation, recursive CI coupling coefficients
  Masaaki Saitow         : Open-shell DLPNO-CCSD energy and density      
  Barbara Sandhoefer     : DKH picture change effects                    
  Yorick L. A. Schmerwitz: GMF and freeze-and-release deltaSCF, NEB S-IDPP initial path                    
  Kantharuban Sivalingam : CASSCF convergence/infrastructure, NEVPT2, NEVPT3, NEVPT4(SD), FIC-MRCI and CEPA variants
  Bernardo de Souza      : ESD, SOC TD-DFT                               
  Georgi L. Stoychev     : AutoAux, RI-MP2 NMR, DLPNO-MP2 response, X2C  
  Van Anh Tran           : RI-MP2 g-tensors                              
  Willem Van den Heuvel  : Paramagnetic NMR                              
  Zikuan Wang            : NOTCH, Electric field optimization            
  Frank Wennmohs         : Technical directorship and infrastructure     
  Hang Xu                : AUTO-CI-Response properties                   
                                                                         
[FACCTs GmbH]                                                            
  Markus Bursch, Nicolas Foglia, Miquel Garcia-Rates, Ingolf Harden, Hagen Neugebauer, Anastasios Papadopoulos, 
  Christoph Riplinger, Bernardo de Souza, Georgi L. Stoychev                                                    
                                                                 
  APM, various basis sets, CI-OPT, improved COSX, DLPNO-Multilevel,           
  DOCKER, DRACO, updates on ESD, Fragmentator, GOAT, IRC, LR-CPCM, L-BFGS, MBIS, meta-GGA TD-DFT gradient, ML-optimized integration grids, 
  MM, NACMEs, nearIR, NEB, NEB-TS, NL-DFT gradient (VV10), 2- and 3-layer-ONIOM, interface openCOSMO-RS, QMMM,   
  Crystal-QMMM, RESP, rigid body optimization, SF, symmetry and pop. for TD-DFT, various functionals, SOLVATOR                                   
                                                                         
[Other institutions]                                                     
  V. Asgeirsson          : NEB                                           
  Christoph Bannwarth    : sTDA-DFT, sTD-DFT, PBEh-3c, B97-3c, D3        
  Giovanni Bistoni       : ETS/NOCV, ADLD/ADEX, COVALED                  
  Martin Brehm           : Molecular dynamics                            
  Ronald Cardenas        : ETS/NOCV                                      
  Martina Colucci        : COVALED                                       
  Sebastian Ehlert       : rSCAN, r2SCAN, r2SCAN-3c, D4, dhf basis sets  
  Marvin Friede          : D4 for Fr, Ra, Ac-Lr                          
  Lars Goerigk           : TD-DFT with DH, B97 family of functionals     
  Stefan Grimme          : VdW corrections, initial TS optimization, DFT functionals, gCP, sTDA/sTD-DF 
  Waldemar Hujo          : DFT-NL                                        
  H. Jonsson             : NEB                                           
  Holger Kruse           : gCP                                           
  Marcel Mueller         : wB97X-3c, vDZP basis set                      
  Hagen Neugebauer       : wr2SCAN, Native XTB                           
  Gianluca Regni         : ADLD/ADEX                                     
  Tobias Risthaus        : pre 6.0 range-separated hybrid DFT and stability analysis
  Lukas Wittmann         : regularized MP2, r2SCAN double-hybrids, wr2SCAN        
                                                                         
We gratefully acknowledge several colleagues who have allowed us to      
interface, adapt or use parts of their codes:                            
  Ed Valeev, F. Pavosevic, A. Kumar             : LibInt (2-el integral package), F12 methods 
  Garnet Chan, S. Sharma, J. Yang, R. Olivares  : DMRG                   
  Ulf Ekstrom                                   : XCFun DFT Library      
  Mihaly Kallay                                 : mrcc  (arbitrary order and MRCC methods)
  Frank Weinhold                                : gennbo (NPA and NBO analysis)           
  Simon Mueller                                 : openCOSMO-RS                            
  Christopher J. Cramer and Donald G. Truhlar   : smd solvation model                     
  S Lehtola, MJT Oliveira, MAL Marques          : LibXC Library                           
  Liviu Ungur et al                             : ANISO software                          


 Your calculation uses the libint2 library for the computation of 2-el integrals
 For citations please refer to: http://libint.valeyev.net

 Your ORCA version has been built with support for libXC version: 7.0.0
 For citations please refer to: https://libxc.gitlab.io

 This ORCA versions uses:
   CBLAS   interface :  Fast vector & matrix operations
   LAPACKE interface :  Fast linear algebra routines
   SCALAPACK package :  Parallel linear algebra routines
   Shared memory     :  Shared parallel matrices
   BLAS/LAPACK       :  OpenBLAS 0.3.29  USE64BITINT DYNAMIC_ARCH NO_AFFINITY Zen SINGLE_THREADED
        Core in use  :  Zen
   Copyright (c) 2011-2014, The OpenBLAS Project


  ***********************************
  * Starting time: Fri Apr 17 14:18:20 2026
  * Host name:     vmi3233575
  * Process ID:    349630
  * Working dir.:  /root/orca_b12_vps_pack/jobs/03_numfreq
  ***********************************

NOTE: MaxCore=2000 MB was set to SCF,MP2,MDCI,CIPSI,MRCI,RASCI and CIS
      => If you want to overwrite this, your respective input block should be placed after the MaxCore statement


***************************************
The coordinates will be read from file: ../../results/02_r2scan_xyz/ring12_d1.70_m1_r2scan.xyz
***************************************


Your calculation utilizes the geometrical counterpoise correction gCP
Please cite in your paper:
H.Kruse, S. Grimme J.Chem.Phys., 136, (2012), 154101 
   

Your calculation utilizes the atom-pairwise dispersion correction
based on EEQ partial charges (D4)


================================================================================

----- Orbital basis set information -----
Your calculation utilizes the basis: def2-mTZVPP
   Stefan Grimme, Andreas Hansen, Sebastian Ehlert, and Jan-Michael Mewes 
   J. Chem. Phys. 154, 064103 (2021). DOI: 10.1063/5.0040021

----- AuxJ basis set information -----
Your calculation utilizes the basis: def2-mTZVPP/J
   Stefan Grimme, Andreas Hansen, Sebastian Ehlert, and Jan-Michael Mewes 
   J. Chem. Phys. 154, 000000 (2021). DOI: 10.1063/5.0040021

================================================================================
                                        WARNINGS
                       Please study these warnings very carefully!
================================================================================



WARNING: SCAN, rSCAN, or r2SCAN functional requested.
  ===> : libXC variant has now been activated.


WARNING: Gradients needed for Numerical Frequencies
  ===> : Setting RunTyp to EnGrad

WARNING: The environment variable RSH_COMMAND is not set!
  ===> : All Displacements for the Numerical Hessian or Gradient calculation
         will be started on localhost

================================================================================
                                       INPUT FILE
================================================================================
NAME = ring12_d1.70_m1_r2scan_numfreq.inp
|  1> ! r2SCAN-3c TightSCF NumFreq
|  2> 
|  3> %pal
|  4>   nprocs 8
|  5> end
|  6> 
|  7> %maxcore 2000
|  8> 
|  9> * xyzfile 0 1 ../../results/02_r2scan_xyz/ring12_d1.70_m1_r2scan.xyz
| 10> 
| 11>                          ****END OF INPUT****
================================================================================

                     *******************************
                     * Energy+Gradient Calculation *
                     *******************************

---------------------------------
CARTESIAN COORDINATES (ANGSTROEM)
---------------------------------
  B      2.975667    0.000002    0.000000
  B      2.576968    1.487886   -0.000000
  B      1.487892    2.576965   -0.000000
  B      0.000004    2.975671   -0.000000
  B     -1.487887    2.576967    0.000000
  B     -2.576968    1.487885    0.000000
  B     -2.975671   -0.000004    0.000000
  B     -2.576965   -1.487891   -0.000000
  B     -1.487885   -2.576967   -0.000000
  B     -0.000001   -2.975667   -0.000000
  B      1.487883   -2.576963    0.000000
  B      2.576963   -1.487884    0.000000

----------------------------
CARTESIAN COORDINATES (A.U.)
----------------------------
  NO LB      ZA    FRAG     MASS         X           Y           Z
   0 B     5.0000    0    10.810    5.623196    0.000004    0.000000
   1 B     5.0000    0    10.810    4.869764    2.811697   -0.000000
   2 B     5.0000    0    10.810    2.811708    4.869758   -0.000000
   3 B     5.0000    0    10.810    0.000008    5.623203   -0.000000
   4 B     5.0000    0    10.810   -2.811699    4.869762    0.000000
   5 B     5.0000    0    10.810   -4.869764    2.811695    0.000000
   6 B     5.0000    0    10.810   -5.623203   -0.000008    0.000000
   7 B     5.0000    0    10.810   -4.869758   -2.811707   -0.000000
   8 B     5.0000    0    10.810   -2.811695   -4.869762   -0.000000
   9 B     5.0000    0    10.810   -0.000002   -5.623196   -0.000000
  10 B     5.0000    0    10.810    2.811691   -4.869754    0.000000
  11 B     5.0000    0    10.810    4.869754   -2.811693    0.000000

--------------------------------
INTERNAL COORDINATES (ANGSTROEM)
--------------------------------
 B      0   0   0     0.000000000000     0.00000000     0.00000000
 B      1   0   0     1.540376476728     0.00000000     0.00000000
 B      2   1   0     1.540188170977   150.00085798     0.00000000
 B      3   2   1     1.540382152253   150.00091314     0.00000000
 B      4   3   2     1.540384532348   149.99811663     0.00000000
 B      5   4   3     1.540193827830   150.00086501     0.00000000
 B      6   5   4     1.540382341670   150.00090095     0.00000000
 B      7   6   5     1.540381186332   149.99812368     0.00000000
 B      8   7   6     1.540188878085   150.00089646     0.00000000
 B      9   8   7     1.540376735560   150.00092021     0.00000000
 B     10   9   8     1.540377770896   149.99822630     0.00000000
 B     11  10   9     1.540190999403   150.00098501     0.00000000

---------------------------
INTERNAL COORDINATES (A.U.)
---------------------------
 B      0   0   0     0.000000000000     0.00000000     0.00000000
 B      1   0   0     2.910889684150     0.00000000     0.00000000
 B      2   1   0     2.910533837851   150.00085798     0.00000000
 B      3   2   1     2.910900409339   150.00091314     0.00000000
 B      4   3   2     2.910904907066   149.99811663     0.00000000
 B      5   4   3     2.910544527754   150.00086501     0.00000000
 B      6   5   4     2.910900767285   150.00090095     0.00000000
 B      7   6   5     2.910898584012   149.99812368     0.00000000
 B      8   7   6     2.910535174092   150.00089646     0.00000000
 B      9   8   7     2.910890173273   150.00092021     0.00000000
 B     10   9   8     2.910892129774   149.99822630     0.00000000
 B     11  10   9     2.910539182802   150.00098501     0.00000000

---------------------
BASIS SET INFORMATION
---------------------
There are 1 groups of distinct atoms

 Group   1 Type B   : 11s6p1d contracted to 5s3p1d pattern {62111/411/1}

Atom   0B    basis set group =>   1
Atom   1B    basis set group =>   1
Atom   2B    basis set group =>   1
Atom   3B    basis set group =>   1
Atom   4B    basis set group =>   1
Atom   5B    basis set group =>   1
Atom   6B    basis set group =>   1
Atom   7B    basis set group =>   1
Atom   8B    basis set group =>   1
Atom   9B    basis set group =>   1
Atom  10B    basis set group =>   1
Atom  11B    basis set group =>   1
---------------------------------
AUXILIARY/J BASIS SET INFORMATION
---------------------------------
There are 1 groups of distinct atoms

 Group   1 Type B   : 8s3p3d contracted to 6s3p3d pattern {311111/111/111}

Atom   0B    basis set group =>   1
Atom   1B    basis set group =>   1
Atom   2B    basis set group =>   1
Atom   3B    basis set group =>   1
Atom   4B    basis set group =>   1
Atom   5B    basis set group =>   1
Atom   6B    basis set group =>   1
Atom   7B    basis set group =>   1
Atom   8B    basis set group =>   1
Atom   9B    basis set group =>   1
Atom  10B    basis set group =>   1
Atom  11B    basis set group =>   1


           ************************************************************
           *        Program running with 8 parallel MPI-processes     *
           *              working on a common directory               *
           ************************************************************
------------------------------------------------------------------------------
                             ORCA STARTUP CALCULATIONS
                           -- RI-GTO INTEGRALS CHOSEN --
------------------------------------------------------------------------------
------------------------------------------------------------------------------
                   ___                                                        
                  /   \      - P O W E R E D   B Y -                         
                 /     \                                                     
                 |  |  |   _    _      __       _____    __    __             
                 |  |  |  | |  | |    /  \     |  _  \  |  |  /  |          
                  \  \/   | |  | |   /    \    | | | |  |  | /  /          
                 / \  \   | |__| |  /  /\  \   | |_| |  |  |/  /          
                |  |  |   |  __  | /  /__\  \  |    /   |      \           
                |  |  |   | |  | | |   __   |  |    \   |  |\   \          
                \     /   | |  | | |  |  |  |  | |\  \  |  | \   \       
                 \___/    |_|  |_| |__|  |__|  |_| \__\ |__|  \__/        
                                                                              
                      - O R C A' S   B I G   F R I E N D -                    
                                      &                                       
                       - I N T E G R A L  F E E D E R -                       
                                                                              
 v1 FN, 2020, v2 2021, v3 2022-2024                                           
------------------------------------------------------------------------------


----------------------
SHARK INTEGRAL PACKAGE
----------------------

Number of atoms                             ...     12
Number of basis functions                   ...    228
Number of shells                            ...    108
Maximum angular momentum                    ...      2
Integral batch strategy                     ... SHARK/LIBINT Hybrid
RI-J (if used) integral strategy            ... SPLIT-RIJ (Revised 2003 algorithm where possible)
Printlevel                                  ...      1
Contraction scheme used                     ... SEGMENTED contraction
Prescreening option                         ... SCHWARTZ
   Thresh                                   ... 2.500e-11
   Tcut                                     ... 2.500e-12
   Tpresel                                  ... 2.500e-12 
Coulomb Range Separation                    ... NOT USED
Exchange Range Separation                   ... NOT USED
Multipole approximations                    ... NOT USED
Finite Nucleus Model                        ... NOT USED
CABS basis                                  ... NOT available
Auxiliary Coulomb fitting basis             ... AVAILABLE
   # of basis functions in Aux-J            ...    360
   # of shells in Aux-J                     ...    144
   Maximum angular momentum in Aux-J        ...      2
Auxiliary J/K fitting basis                 ... NOT available
Auxiliary Correlation fitting basis         ... NOT available
Auxiliary 'external' fitting basis          ... NOT available

Checking pre-screening integrals            ... done (  0.0 sec) Dimension = 108
   => SHARK Basis and OBASIS are compatible. Storing Pre-screening
Shell pair information
Shell pair cut-off parameter TPreSel        ...   2.5e-12
Total number of shell pairs                 ...      5886
Shell pairs after pre-screening             ...      5142
Total number of primitive shell pairs       ...     23700
Primitive shell pairs kept                  ...     13866
          la=0 lb=0:   1482 shell pairs
          la=1 lb=0:   2016 shell pairs
          la=1 lb=1:    648 shell pairs
          la=2 lb=0:    540 shell pairs
          la=2 lb=1:    396 shell pairs
          la=2 lb=2:     60 shell pairs

Checking whether 4 symmetric matrices of dimension 228 fit in memory
:Max Core in MB      =   2000.00
 MB in use           =      7.96
 MB left             =   1992.04
 MB needed           =      0.80
 Data fit in memory  = YES
Calculating RI/J V-Matrix + Cholesky decomp.... done (  0.0 sec)
Calculating Nuclear repulsion               ... done (  0.0 sec) ENN=    265.896077021744 Eh

Diagonalization of the overlap matrix:
Smallest eigenvalue                        ... 5.287e-07
Time for diagonalization                   ...    0.011 sec
Threshold for overlap eigenvalues          ... 1.000e-07
Number of eigenvalues below threshold      ... 0

IMPORTANT:
Smallest eigenvalue of S below the DiffSThresh (1.000e-06) while
Thresh>1e-12 and/or TCut>1e-13! In order to avoid SCF convergence issues,
Thresh will be set to at least 1e-12 and TCut to at least 1e-13.
This can be turned off by adding %SCF DiffSThresh -1 END to the input.

Time for construction of square roots      ...    0.003 sec
Total time needed                          ...    0.017 sec

-------------------
DFT GRID GENERATION
-------------------

General Integration Accuracy     IntAcc      ... 4.388
Radial Grid Type                 RadialGrid  ... OptM3 with GC (2021)
Angular Grid (max. ang.)         AngularGrid ... 4 (Lebedev-302)
Angular grid pruning method      GridPruning ... 4 (adaptive)
Weight generation scheme         WeightScheme... mBecke (2022)
Basis function cutoff            BFCut       ... 1.0000e-11
Integration weight cutoff        WCut        ... 1.0000e-14
Partially contracted basis set               ... off
Rotationally invariant grid construction     ... off
Angular grids for H and He will be reduced by one unit

Total number of grid points                  ...    72284
Total number of batches                      ...     1132
Average number of points per batch           ...       63
Average number of grid points per atom       ...     6024
Grids setup in   0.7 sec
Initializing property integral containers    ... done (  0.0 sec)

SHARK setup successfully completed in   0.9 seconds

Maximum memory used throughout the entire STARTUP-calculation: 21.2 MB


           ************************************************************
           *        Program running with 8 parallel MPI-processes     *
           *              working on a common directory               *
           ************************************************************
-------------------------------------------------------------------------------
                                 ORCA GUESS
                   Start orbitals & Density for SCF / CASSCF
-------------------------------------------------------------------------------

------------
SCF SETTINGS
------------
Hamiltonian:
 Density Functional     Method          .... DFT(GTOs)
  Functional kind                       .... Exchange
  Functional name                       .... Re-regularized SCAN exchange by Furness et al
  Functional family                     .... MGGA
  Functional refs                              
    [ 0] J. W. Furness, A. D. Kaplan, J. Ning, J. P. Perdew, and J. Sun.,  J. Phys. Chem. Lett. 11, 8208-8215 (2020), doi: 10.1021/acs.jpclett.0c02405
    [ 1] J. W. Furness, A. D. Kaplan, J. Ning, J. P. Perdew, and J. Sun.,  J. Phys. Chem. Lett. 11, 9248-9248 (2020), doi: 10.1021/acs.jpclett.0c03077
  Functional external parameters        .... 6
    Parameter  0 _c1        =  6.670000e-01 : c1 parameter        
    Parameter  1 _c2        =  8.000000e-01 : c2 parameter        
    Parameter  2 _d         =  1.240000e+00 : d parameter         
    Parameter  3 _k1        =  6.500000e-02 : k1 parameter        
    Parameter  4 _eta       =  1.000000e-03 : eta parameter       
    Parameter  5 _dp2       =  3.610000e-01 : dp2 parameter       
  Functional kind                       .... Correlation
  Functional name                       .... Re-regularized SCAN correlation by Furness et al
  Functional family                     .... MGGA
  Functional refs                              
    [ 0] J. W. Furness, A. D. Kaplan, J. Ning, J. P. Perdew, and J. Sun.,  J. Phys. Chem. Lett. 11, 8208-8215 (2020), doi: 10.1021/acs.jpclett.0c02405
    [ 1] J. W. Furness, A. D. Kaplan, J. Ning, J. P. Perdew, and J. Sun.,  J. Phys. Chem. Lett. 11, 9248-9248 (2020), doi: 10.1021/acs.jpclett.0c03077
  Functional external parameters        .... 1
    Parameter  0 _eta       =  1.000000e-03 : Regularization parameter
 Gradients option       PostSCFGGA      .... off
 RI-approximation to the Coulomb term is turned on
   Number of AuxJ basis functions       .... 360


General Settings:
 Integral files         IntName         .... ring12_d1.70_m1_r2scan_numfreq
 Hartree-Fock type      HFTyp           .... RHF
 Total Charge           Charge          ....    0
 Multiplicity           Mult            ....    1
 Number of Electrons    NEL             ....   60
 Basis Dimension        Dim             ....  228
 Nuclear Repulsion      ENuc            ....    265.8960770217 Eh

Convergence Acceleration:
 AO-DIIS                CNVDIIS         .... on
   Start iteration      DIISMaxIt       ....    12
   Startup error        DIISStart       ....  0.200000
   # of expansion vecs  DIISMaxEq       ....     5
   Bias factor          DIISBfac        ....   1.050
   Max. coefficient     DIISMaxC        ....  10.000
 MO-DIIS                CNVKDIIS        .... off
 Trust-Rad. Augm. Hess. CNVTRAH         .... auto
   Auto Start mean grad. ratio tolernc. ....  1.125000
   Auto Start start iteration           ....    50
   Auto Start num. interpolation iter.  ....    10
   Max. Number of Micro iterations      ....    24
   Max. Number of Macro iterations      .... Maxiter - #DIIS iter
   Number of Davidson start vectors     ....     2
   Converg. threshold    (grad. norm)   ....   1.000e-05
   Grad. Scal. Fac. for Micro threshold ....   0.100
   Minimum threshold for Micro iter.    ....   1.000e-02
   NR start threshold (gradient norm)   ....   1.000e-04
   Initial trust radius                 ....   0.400
   Minimum AH scaling param. (alpha)    ....   1.000
   Maximum AH scaling param. (alpha)    .... 1000.000
   Quad. conv. algorithm                .... NR
   White noise on init. David. guess    .... on
   Maximum white noise                  ....   0.010
   Pseudo random numbers                .... off
   Inactive MOs                         .... canonical
   Orbital update algorithm             .... Taylor
   Preconditioner                       .... Diag
   Full preconditioner red. dimension   ....   250
   COSX micro iterations for RIJONX calc.... off
 SOSCF                 CNVSOSCF           .... on
   Start iteration     SOSCFMaxIt         ....   150
   Startup grad/error  SOSCFStart         ....  0.003300
   Hessian update      SOSCFHessUp        .... L-BFGS
   Autom. constraints  SOSCFAutoConstrain .... off
 Level Shifting         CNVShift        .... on
   Level shift para.    LevelShift      ....    0.2500
   Turn off err/grad.   ShiftErr        ....    0.0010
 Zerner damping         CNVZerner       .... off
 Static damping         CNVDamp         .... on
   Fraction old density DampFac         ....    0.7000
   Max. Damping (<1)    DampMax         ....    0.9800
   Min. Damping (>=0)   DampMin         ....    0.0000
   Turn off err/grad.   DampErr         ....    0.1000

SCF Procedure:
 Maximum # iterations   MaxIter         ....   125
 SCF integral mode      SCFMode         .... Direct
   Integral package                     .... SHARK and LIBINT hybrid scheme
 Reset frequency        DirectResetFreq ....    20
 Integral Threshold     Thresh          ....  1.000e-12 Eh
 Primitive CutOff       TCut            ....  1.000e-13 Eh

Convergence Tolerance:
 Convergence Check Mode ConvCheckMode   .... Total+1el-Energy
 Convergence forced     ConvForced      .... 0
 Energy Change          TolE            ....  1.000e-08 Eh
 1-El. energy change                    ....  1.000e-05 Eh
 Orbital Gradient       TolG            ....  1.000e-05
 Orbital Rotation angle TolX            ....  1.000e-05
 DIIS Error             TolErr          ....  5.000e-07

------------------------------
INITIAL GUESS: MODEL POTENTIAL
------------------------------
Loading Hartree-Fock densities                     ... done
Calculating cut-offs                               ... done
Initializing the effective Hamiltonian             ... done
Setting up the integral package (SHARK)            ... done
Starting the Coulomb interaction                   ... done (   0.1 sec)
Making the grid                                    ... done (   0.1 sec)
Mapping shells                                     ... done
Starting the XC term evaluation                    ... done (   0.1 sec)
  promolecular density results
     # of electrons  =     60.001928304
     EX              =    -45.121929223
     EC              =     -1.719953390
     EX+EC           =    -46.841882613
Transforming the Hamiltonian                       ... done (   0.0 sec)
Diagonalizing the Hamiltonian                      ... done (   0.0 sec)
Back transforming the eigenvectors                 ... done (   0.0 sec)
Now organizing SCF variables                       ... done
                      ------------------
                      INITIAL GUESS DONE (   0.3 sec)
                      ------------------
             **** ENERGY FILE WAS UPDATED (ring12_d1.70_m1_r2scan_numfreq.en.tmp) ****
Finished Guess after   0.7 sec
Maximum memory used throughout the entire GUESS-calculation: 11.2 MB


           ************************************************************
           *        Program running with 8 parallel MPI-processes     *
           *              working on a common directory               *
           ************************************************************

-------------------------------------------------------------------------------------------
                                      ORCA LEAN-SCF
                              memory conserving SCF solver
-------------------------------------------------------------------------------------------

----------------------------------------D-I-I-S--------------------------------------------
Iteration    Energy (Eh)           Delta-E    RMSDP     MaxDP     DIISErr   Damp  Time(sec)
-------------------------------------------------------------------------------------------
               ***  Starting incremental Fock matrix formation  ***
    1    -297.3280344040945238     0.00e+00  6.97e-03  3.71e-02  7.92e-02  0.700   0.5
Warning: op=0 Small HOMO/LUMO gap (   0.050) - skipping pre-diagonalization
         Will do a full diagonalization
    2    -297.4232035611487390    -9.52e-02  4.80e-03  2.78e-02  5.10e-02  0.700   0.5
                               ***Turning on AO-DIIS***
    3    -297.4748560195873779    -5.17e-02  2.88e-03  1.29e-02  2.58e-02  0.700   0.5
    4    -297.5037382180343002    -2.89e-02  6.31e-03  2.38e-02  1.44e-02  0.000   0.5
    5    -297.5626218803711254    -5.89e-02  2.31e-03  1.21e-02  4.77e-03  0.000   0.5
                              *** Initializing SOSCF ***
---------------------------------------S-O-S-C-F--------------------------------------
Iteration    Energy (Eh)           Delta-E    RMSDP     MaxDP     MaxGrad    Time(sec)
--------------------------------------------------------------------------------------
    6    -297.5632905545868425    -6.69e-04  1.48e-03  7.56e-03  1.40e-03     0.5
               *** Restarting incremental Fock matrix formation ***
    7    -297.5633615269945267    -7.10e-05  1.50e-03  7.53e-03  4.81e-04     0.6
    8    -297.5633694613898115    -7.93e-06  3.31e-04  1.57e-03  3.25e-04     0.5
    9    -297.5633725019483791    -3.04e-06  5.99e-05  3.02e-04  4.82e-05     0.5
   10    -297.5633722544137072     2.48e-07  2.87e-05  1.37e-04  1.44e-04     0.5
   11    -297.5633725471940352    -2.93e-07  7.13e-05  3.52e-04  3.47e-05     0.4
   12    -297.5633725673937988    -2.02e-08  1.69e-05  8.08e-05  2.97e-05     0.5
   13    -297.5633725744844469    -7.09e-09  3.80e-05  1.88e-04  3.96e-05     0.4
                 **** Energy Check signals convergence ****

               *****************************************************
               *                     SUCCESS                       *
               *           SCF CONVERGED AFTER  13 CYCLES          *
               *****************************************************

             **** ENERGY FILE WAS UPDATED (ring12_d1.70_m1_r2scan_numfreq.en.tmp) ****

----------------
TOTAL SCF ENERGY
----------------

Total Energy       :       -297.56337258044562 Eh           -8097.11102 eV

Components:
Nuclear Repulsion  :        265.89607702174351 Eh            7235.40010 eV
Electronic Energy  :       -563.45944960218912 Eh          -15332.51111 eV
One Electron Energy:       -922.39113086771010 Eh          -25099.53871 eV
Two Electron Energy:        358.93168126552098 Eh            9767.02759 eV

Virial components:
Potential Energy   :       -593.74906623250763 Eh          -16156.73348 eV
Kinetic Energy     :        296.18569365206201 Eh            8059.62247 eV
Virial Ratio       :          2.00465140267714

DFT components:
N(Alpha)           :       29.999963013878 electrons
N(Beta)            :       29.999963013878 electrons
N(Total)           :       59.999926027756 electrons
E(X)               :      -46.409156777722 Eh       
E(C)               :       -1.721289519186 Eh       
E(XC)              :      -48.130446296908 Eh       

---------------
SCF CONVERGENCE
---------------

  Last Energy change         ...    7.0906e-09  Tolerance :   1.0000e-08
  Last MAX-Density change    ...    1.8849e-04  Tolerance :   1.0000e-07
  Last RMS-Density change    ...    3.8008e-05  Tolerance :   5.0000e-09
  Last DIIS Error            ...    1.3984e-03  Tolerance :   5.0000e-07
  Last Orbital Gradient      ...    3.9593e-05  Tolerance :   1.0000e-05
  Last Orbital Rotation      ...    9.3990e-05  Tolerance :   1.0000e-05


----------------
ORBITAL ENERGIES
----------------

  NO   OCC          E(Eh)            E(eV) 
   0   2.0000      -6.649336      -180.9376 
   1   2.0000      -6.649252      -180.9353 
   2   2.0000      -6.649227      -180.9347 
   3   2.0000      -6.648893      -180.9256 
   4   2.0000      -6.648884      -180.9253 
   5   2.0000      -6.648403      -180.9123 
   6   2.0000      -6.648403      -180.9122 
   7   2.0000      -6.647929      -180.8993 
   8   2.0000      -6.647919      -180.8991 
   9   2.0000      -6.647597      -180.8903 
  10   2.0000      -6.647569      -180.8895 
  11   2.0000      -6.647460      -180.8866 
  12   2.0000      -0.547417       -14.8960 
  13   2.0000      -0.532503       -14.4902 
  14   2.0000      -0.532485       -14.4897 
  15   2.0000      -0.493441       -13.4272 
  16   2.0000      -0.493423       -13.4267 
  17   2.0000      -0.439997       -11.9729 
  18   2.0000      -0.439997       -11.9729 
  19   2.0000      -0.381823       -10.3899 
  20   2.0000      -0.381804       -10.3894 
  21   2.0000      -0.330984        -9.0065 
  22   2.0000      -0.330966        -9.0061 
  23   2.0000      -0.308703        -8.4002 
  24   2.0000      -0.254630        -6.9288 
  25   2.0000      -0.253180        -6.8894 
  26   2.0000      -0.234076        -6.3695 
  27   2.0000      -0.234061        -6.3691 
  28   2.0000      -0.232091        -6.3155 
  29   2.0000      -0.232076        -6.3151 
  30   0.0000      -0.180336        -4.9072 
  31   0.0000      -0.180313        -4.9066 
  32   0.0000      -0.174181        -4.7397 
  33   0.0000      -0.174157        -4.7391 
  34   0.0000      -0.096413        -2.6235 
  35   0.0000      -0.096413        -2.6235 
  36   0.0000      -0.090191        -2.4542 
  37   0.0000      -0.090191        -2.4542 
  38   0.0000      -0.008853        -0.2409 
  39   0.0000      -0.008819        -0.2400 
  40   0.0000       0.008328         0.2266 
*Only the first 10 virtual orbitals were printed.

                    ********************************
                    * MULLIKEN POPULATION ANALYSIS *
                    ********************************

-----------------------
MULLIKEN ATOMIC CHARGES
-----------------------
   0 B :    0.000270
   1 B :   -0.000141
   2 B :   -0.000174
   3 B :    0.000234
   4 B :   -0.000115
   5 B :   -0.000106
   6 B :    0.000241
   7 B :   -0.000183
   8 B :   -0.000152
   9 B :    0.000295
  10 B :   -0.000080
  11 B :   -0.000088
Sum of atomic charges:    0.0000000

--------------------------------
MULLIKEN REDUCED ORBITAL CHARGES
--------------------------------
  0 B s       :     3.147120  s :     3.147120
      pz      :     0.498544  p :     1.841964
      px      :     0.497419
      py      :     0.846002
      dz2     :     0.001857  d :     0.010645
      dxz     :     0.000503
      dyz     :     0.000911
      dx2y2   :     0.005406
      dxy     :     0.001967

  1 B s       :     3.147125  s :     3.147125
      pz      :     0.498617  p :     1.842371
      px      :     0.584708
      py      :     0.759046
      dz2     :     0.001857  d :     0.010646
      dxz     :     0.000606
      dyz     :     0.000809
      dx2y2   :     0.002827
      dxy     :     0.004546

  2 B s       :     3.147128  s :     3.147128
      pz      :     0.498623  p :     1.842400
      px      :     0.759065
      py      :     0.584712
      dz2     :     0.001857  d :     0.010646
      dxz     :     0.000809
      dyz     :     0.000606
      dx2y2   :     0.002827
      dxy     :     0.004546

  3 B s       :     3.147126  s :     3.147126
      pz      :     0.498554  p :     1.841994
      px      :     0.846015
      py      :     0.497426
      dz2     :     0.001857  d :     0.010646
      dxz     :     0.000912
      dyz     :     0.000503
      dx2y2   :     0.005406
      dxy     :     0.001967

  4 B s       :     3.147126  s :     3.147126
      pz      :     0.498593  p :     1.842344
      px      :     0.759053
      py      :     0.584698
      dz2     :     0.001857  d :     0.010645
      dxz     :     0.000809
      dyz     :     0.000606
      dx2y2   :     0.002827
      dxy     :     0.004546

  5 B s       :     3.147124  s :     3.147124
      pz      :     0.498592  p :     1.842337
      px      :     0.584696
      py      :     0.759050
      dz2     :     0.001857  d :     0.010645
      dxz     :     0.000606
      dyz     :     0.000809
      dx2y2   :     0.002827
      dxy     :     0.004546

  6 B s       :     3.147125  s :     3.147125
      pz      :     0.498554  p :     1.841989
      px      :     0.497427
      py      :     0.846008
      dz2     :     0.001857  d :     0.010646
      dxz     :     0.000503
      dyz     :     0.000912
      dx2y2   :     0.005406
      dxy     :     0.001967

  7 B s       :     3.147128  s :     3.147128
      pz      :     0.498626  p :     1.842409
      px      :     0.584715
      py      :     0.759067
      dz2     :     0.001857  d :     0.010646
      dxz     :     0.000606
      dyz     :     0.000809
      dx2y2   :     0.002827
      dxy     :     0.004546

  8 B s       :     3.147126  s :     3.147126
      pz      :     0.498616  p :     1.842381
      px      :     0.759052
      py      :     0.584712
      dz2     :     0.001857  d :     0.010646
      dxz     :     0.000809
      dyz     :     0.000606
      dx2y2   :     0.002827
      dxy     :     0.004546

  9 B s       :     3.147117  s :     3.147117
      pz      :     0.498536  p :     1.841943
      px      :     0.845998
      py      :     0.497409
      dz2     :     0.001857  d :     0.010645
      dxz     :     0.000911
      dyz     :     0.000503
      dx2y2   :     0.005406
      dxy     :     0.001967

 10 B s       :     3.147121  s :     3.147121
      pz      :     0.498581  p :     1.842314
      px      :     0.759049
      py      :     0.584685
      dz2     :     0.001857  d :     0.010645
      dxz     :     0.000809
      dyz     :     0.000606
      dx2y2   :     0.002827
      dxy     :     0.004546

 11 B s       :     3.147123  s :     3.147123
      pz      :     0.498586  p :     1.842320
      px      :     0.584689
      py      :     0.759046
      dz2     :     0.001857  d :     0.010645
      dxz     :     0.000606
      dyz     :     0.000809
      dx2y2   :     0.002827
      dxy     :     0.004546



                     *******************************
                     * LOEWDIN POPULATION ANALYSIS *
                     *******************************

----------------------
LOEWDIN ATOMIC CHARGES
----------------------
   0 B :    0.000073
   1 B :   -0.000060
   2 B :   -0.000072
   3 B :    0.000053
   4 B :   -0.000010
   5 B :   -0.000007
   6 B :    0.000053
   7 B :   -0.000079
   8 B :   -0.000058
   9 B :    0.000090
  10 B :    0.000014
  11 B :    0.000003

-------------------------------
LOEWDIN REDUCED ORBITAL CHARGES
-------------------------------
  0 B s       :     2.866481  s :     2.866481
      pz      :     0.497728  p :     2.113286
      px      :     0.510905
      py      :     1.104652
      dz2     :     0.003496  d :     0.020159
      dxz     :     0.000661
      dyz     :     0.001568
      dx2y2   :     0.009502
      dxy     :     0.004932

  1 B s       :     2.866440  s :     2.866440
      pz      :     0.497804  p :     2.113457
      px      :     0.659400
      py      :     0.956253
      dz2     :     0.003497  d :     0.020163
      dxz     :     0.000888
      dyz     :     0.001341
      dx2y2   :     0.006075
      dxy     :     0.008361

  2 B s       :     2.866442  s :     2.866442
      pz      :     0.497809  p :     2.113467
      px      :     0.956253
      py      :     0.659405
      dz2     :     0.003497  d :     0.020162
      dxz     :     0.001341
      dyz     :     0.000888
      dx2y2   :     0.006075
      dxy     :     0.008361

  3 B s       :     2.866484  s :     2.866484
      pz      :     0.497737  p :     2.113303
      px      :     1.104652
      py      :     0.510914
      dz2     :     0.003496  d :     0.020159
      dxz     :     0.001568
      dyz     :     0.000661
      dx2y2   :     0.009502
      dxy     :     0.004932

  4 B s       :     2.866440  s :     2.866440
      pz      :     0.497781  p :     2.113408
      px      :     0.956244
      py      :     0.659384
      dz2     :     0.003497  d :     0.020162
      dxz     :     0.001341
      dyz     :     0.000888
      dx2y2   :     0.006075
      dxy     :     0.008361

  5 B s       :     2.866439  s :     2.866439
      pz      :     0.497780  p :     2.113406
      px      :     0.659383
      py      :     0.956244
      dz2     :     0.003497  d :     0.020162
      dxz     :     0.000888
      dyz     :     0.001341
      dx2y2   :     0.006075
      dxy     :     0.008361

  6 B s       :     2.866484  s :     2.866484
      pz      :     0.497738  p :     2.113304
      px      :     0.510915
      py      :     1.104652
      dz2     :     0.003496  d :     0.020159
      dxz     :     0.000661
      dyz     :     0.001568
      dx2y2   :     0.009502
      dxy     :     0.004932

  7 B s       :     2.866443  s :     2.866443
      pz      :     0.497812  p :     2.113474
      px      :     0.659408
      py      :     0.956254
      dz2     :     0.003497  d :     0.020162
      dxz     :     0.000888
      dyz     :     0.001341
      dx2y2   :     0.006075
      dxy     :     0.008361

  8 B s       :     2.866441  s :     2.866441
      pz      :     0.497803  p :     2.113455
      px      :     0.956253
      py      :     0.659400
      dz2     :     0.003497  d :     0.020162
      dxz     :     0.001341
      dyz     :     0.000888
      dx2y2   :     0.006075
      dxy     :     0.008361

  9 B s       :     2.866480  s :     2.866480
      pz      :     0.497720  p :     2.113270
      px      :     1.104652
      py      :     0.510898
      dz2     :     0.003496  d :     0.020159
      dxz     :     0.001568
      dyz     :     0.000661
      dx2y2   :     0.009502
      dxy     :     0.004932

 10 B s       :     2.866438  s :     2.866438
      pz      :     0.497769  p :     2.113386
      px      :     0.956241
      py      :     0.659376
      dz2     :     0.003497  d :     0.020162
      dxz     :     0.001341
      dyz     :     0.000888
      dx2y2   :     0.006075
      dxy     :     0.008361

 11 B s       :     2.866439  s :     2.866439
      pz      :     0.497774  p :     2.113396
      px      :     0.659379
      py      :     0.956243
      dz2     :     0.003497  d :     0.020162
      dxz     :     0.000888
      dyz     :     0.001341
      dx2y2   :     0.006075
      dxy     :     0.008361



                      *****************************
                      * MAYER POPULATION ANALYSIS *
                      *****************************

  NA   - Mulliken gross atomic population
  ZA   - Total nuclear charge
  QA   - Mulliken gross atomic charge
  VA   - Mayer's total valence
  BVA  - Mayer's bonded valence
  FA   - Mayer's free valence

  ATOM       NA         ZA         QA         VA         BVA        FA
  0 B      4.9997     5.0000     0.0003     3.4114     3.4114     0.0000
  1 B      5.0001     5.0000    -0.0001     3.4117     3.4117     0.0000
  2 B      5.0002     5.0000    -0.0002     3.4117     3.4117     0.0000
  3 B      4.9998     5.0000     0.0002     3.4114     3.4114    -0.0000
  4 B      5.0001     5.0000    -0.0001     3.4117     3.4117    -0.0000
  5 B      5.0001     5.0000    -0.0001     3.4117     3.4117    -0.0000
  6 B      4.9998     5.0000     0.0002     3.4114     3.4114    -0.0000
  7 B      5.0002     5.0000    -0.0002     3.4117     3.4117     0.0000
  8 B      5.0002     5.0000    -0.0002     3.4117     3.4117     0.0000
  9 B      4.9997     5.0000     0.0003     3.4114     3.4114     0.0000
 10 B      5.0001     5.0000    -0.0001     3.4116     3.4116     0.0000
 11 B      5.0001     5.0000    -0.0001     3.4117     3.4117     0.0000

  Mayer bond orders larger than 0.100000
B(  0-B ,  1-B ) :   1.4103 B(  0-B ,  2-B ) :   0.1978 B(  0-B , 10-B ) :   0.1978 
B(  0-B , 11-B ) :   1.4103 B(  1-B ,  2-B ) :   1.4108 B(  1-B ,  3-B ) :   0.1978 
B(  1-B , 11-B ) :   0.1975 B(  2-B ,  3-B ) :   1.4103 B(  2-B ,  4-B ) :   0.1975 
B(  3-B ,  4-B ) :   1.4103 B(  3-B ,  5-B ) :   0.1978 B(  4-B ,  5-B ) :   1.4108 
B(  4-B ,  6-B ) :   0.1978 B(  5-B ,  6-B ) :   1.4103 B(  5-B ,  7-B ) :   0.1975 
B(  6-B ,  7-B ) :   1.4103 B(  6-B ,  8-B ) :   0.1978 B(  7-B ,  8-B ) :   1.4108 
B(  7-B ,  9-B ) :   0.1978 B(  8-B ,  9-B ) :   1.4103 B(  8-B , 10-B ) :   0.1975 
B(  9-B , 10-B ) :   1.4103 B(  9-B , 11-B ) :   0.1978 B( 10-B , 11-B ) :   1.4108 


-------
TIMINGS
-------

Total SCF time: 0 days 0 hours 0 min 7 sec 

Total time                  ....       7.404 sec
Sum of individual times     ....       6.962 sec  ( 94.0%)

SCF preparation             ....       0.416 sec  (  5.6%)
Fock matrix formation       ....       5.943 sec  ( 80.3%)
  Startup                   ....       0.011 sec  (  0.2% of F)
  Split-RI-J                ....       0.922 sec  ( 15.5% of F)
  XC integration            ....       5.197 sec  ( 87.4% of F)
    XC Preparation          ....       0.000 sec  (  0.0% of XC)
    Basis function eval.    ....       0.612 sec  ( 11.8% of XC)
    Density eval.           ....       1.292 sec  ( 24.9% of XC)
    XC-Functional eval.     ....       0.378 sec  (  7.3% of XC)
    XC-Potential eval.      ....       1.536 sec  ( 29.6% of XC)
Diagonalization             ....       0.000 sec  (  0.0%)
Density matrix formation    ....       0.076 sec  (  1.0%)
Total Energy calculation    ....       0.035 sec  (  0.5%)
Population analysis         ....       0.036 sec  (  0.5%)
Orbital Transformation      ....       0.051 sec  (  0.7%)
Orbital Orthonormalization  ....       0.000 sec  (  0.0%)
DIIS solution               ....       0.227 sec  (  3.1%)
SOSCF solution              ....       0.177 sec  (  2.4%)
Finished LeanSCF after   7.4 sec

Maximum memory used throughout the entire LEANSCF-calculation: 12.7 MB


-------------------------------------------------------------------------------
                          DFT DISPERSION CORRECTION                            
                                                                               
                                DFTD4 V3.4.0                                   
-------------------------------------------------------------------------------
The R2SCAN3C composite method is recognized
Using three-body term ABC
Active option DFTDOPT                   ...         5   

-------------------------   ----------------
Dispersion correction           -0.005897313
-------------------------   ----------------

------------------   -----------------
gCP correction             0.004785347
------------------   -----------------

-------------------------   --------------------
FINAL SINGLE POINT ENERGY      -297.564484546490
-------------------------   --------------------



           ************************************************************
           *        Program running with 8 parallel MPI-processes     *
           *              working on a common directory               *
           ************************************************************
------------------------------------------------------------------------------
                         ORCA SCF GRADIENT CALCULATION
------------------------------------------------------------------------------

Nuc. rep. gradient        (SHARK) ... done (  0.0 sec)
HCore & Overlap gradient  (SHARK) ... done (  0.1 sec)
Split-RIJ-J gradient      (SHARK) ... done (  0.3 sec)
XC gradient                       ... done (  1.7 sec)
Dispersion correction             ... done (  0.1 sec)

-------------------
DISPERSION GRADIENT
-------------------

   1   B   :    0.000129774    0.000000000    0.000000000
   2   B   :    0.000112393    0.000064887    0.000000000
   3   B   :    0.000064887    0.000112393    0.000000000
   4   B   :    0.000000000    0.000129774    0.000000000
   5   B   :   -0.000064887    0.000112393    0.000000000
   6   B   :   -0.000112393    0.000064887    0.000000000
   7   B   :   -0.000129774   -0.000000000    0.000000000
   8   B   :   -0.000112393   -0.000064887    0.000000000
   9   B   :   -0.000064887   -0.000112393    0.000000000
  10   B   :    0.000000000   -0.000129774    0.000000000
  11   B   :    0.000064887   -0.000112393    0.000000000
  12   B   :    0.000112393   -0.000064887    0.000000000

Difference to translation invariance:
           :   -0.0000000000    0.0000000000    0.0000000000

Difference to rotation invariance:
           :    0.0000000000    0.0000000000    0.0000000000

Norm of the Dispersion gradient    ...    0.0004495614
RMS gradient                       ...    0.0000749269
MAX gradient                       ...    0.0001297743
gCP correction                   ... done

------------------
CARTESIAN GRADIENT
------------------

   1   B   :   -0.000006323   -0.000001224   -0.000000000
   2   B   :    0.000002497   -0.000009762    0.000000000
   3   B   :   -0.000004882    0.000001185   -0.000000000
   4   B   :   -0.000001843   -0.000003731   -0.000000000
   5   B   :    0.000004737   -0.000000337   -0.000000000
   6   B   :    0.000000008   -0.000006237    0.000000000
   7   B   :    0.000004202    0.000003165   -0.000000000
   8   B   :   -0.000001861    0.000005582    0.000000000
   9   B   :    0.000011124   -0.000003304    0.000000000
  10   B   :    0.000003059    0.000007220   -0.000000000
  11   B   :   -0.000009398    0.000000715   -0.000000000
  12   B   :   -0.000001320    0.000006728    0.000000000

Difference to translation invariance:
           :   -0.0000000000    0.0000000000    0.0000000000

Difference to rotation invariance:
           :    0.0000000001    0.0000000001   -0.0000000028

Norm of the Cartesian gradient     ...    0.0000253236
RMS gradient                       ...    0.0000042206
MAX gradient                       ...    0.0000111236

-------
TIMINGS
-------

Total SCF gradient time     ....        2.121 sec

Densities                   ....       0.001 sec  (  0.1%)
One electron gradient       ....       0.070 sec  (  3.3%)
RI-J Coulomb gradient       ....       0.288 sec  ( 13.6%)
XC gradient                 ....       1.657 sec  ( 78.1%)

Maximum memory used throughout the entire SCFGRAD-calculation: 31.3 MB


           ************************************************************
           *        Program running with 8 parallel MPI-processes     *
           *              working on a common directory               *
           ************************************************************

------------------------------------------------------------------------------
                              ORCA PROPERTY CALCULATIONS
------------------------------------------------------------------------------

GBWName                                 ... ring12_d1.70_m1_r2scan_numfreq.gbw
Number of atoms                         ...     12
Number of basis functions               ...    228
Max core memory                         ...   2000 MB

Electric properties:
Dipole moment                           ... YES
Quadrupole moment                       ...  NO
Static polarizability (Dipole/Dipole)   ...  NO
Static polarizability (Dipole/Quad.)    ...  NO
Static polarizability (Quad./Quad.)     ...  NO
Static polarizability (Velocity)        ...  NO
Static hyperpolarizability              ...  NO

Atomic electric properties:
Dipole moment                           ...  NO
Quadrupole moment                       ...  NO
Static polarizability                   ...  NO

Choice of electric origin               ... Center of mass
Position of electric origin             ...     0.000000     0.000000     0.000000

General magnetic properties:
Magnetizability                         ...  NO

EPR properties:
g-Tensor (aka g-matrix)                 ...  NO
Zero-Field splitting spin-orbit         ...  NO
Zero-field splitting spin-spin          ...  NO
Hyperfine couplings                     ...  NO (   0 nuclei)
Quadrupole couplings                    ...  NO (   0 nuclei)
Contact density                         ...  NO (   0 nuclei)

NMR properties:
Chemical shifts                         ...  NO (   0 nuclei)
Spin-rotation constants                 ...  NO (   0 nuclei)
Spin-spin couplings                     ...  NO (   0 nuclei,    0 pairs)

Choice of magnetic origin               ... GIAO
Position of magnetic origin             ...     0.000000     0.000000     0.000000

Properties with geometric perturbations:
SCF Hessian                             ...  NO
IR spectrum                             ...  NO
VCD spectrum                            ...  NO
X-ray spectroscopy properties:
SCF XES/XAS/RIXS spectra                ...  NO

SCF SOC stabilization energy            ...  NO
Diagonal Born-Oppenheimer correction    ...  NO

-------------
DIPOLE MOMENT
-------------

Method             : SCF
Type of density    : Electron Density
Multiplicity       :   1
Irrep              :   0
Energy             :  -297.5633725804456162 Eh
Basis              : AO
                                X                 Y                 Z
Electronic contribution:      0.000302032      -0.000386600      -0.000000000
Nuclear contribution   :      0.000000000       0.000000000       0.000000000
                        -----------------------------------------
Total Dipole Moment    :      0.000302032      -0.000386600      -0.000000000
                        -----------------------------------------
Magnitude (a.u.)       :      0.000490595
Magnitude (Debye)      :      0.001246992



--------------------
Rotational spectrum 
--------------------
 
Rotational constants in cm-1:             0.029353             0.029353             0.014676 
Rotational constants in MHz :           879.980825           879.978254           439.989770 

Dipole components along the rotational axes: 
x,y,z [a.u.] :     0.000039    -0.000489    -0.000000 
x,y,z [Debye]:     0.000099    -0.001243    -0.000000 

 

Dipole moment calculation done in   0.0 sec 

Maximum memory used throughout the entire PROP-calculation: 9.9 MB

----------------------------------------------------------------------------
                           ORCA NUMERICAL FREQUENCIES
                              (8-process run)
----------------------------------------------------------------------------

Number of atoms                ... 12
Central differences            ... used
Translation invariance         ... used
Number of displacements        ... 72 - 6
Numerical increment            ... 5.000e-03 bohr
IR-spectrum generation         ... on
Raman-spectrum generation      ... off
Surface Crossing Hessian       ... off

The output will be reduced. Please look at the following files:
SCF program output             ... >ring12_d1.70_m1_r2scan_numfreq.lastscf
Integral program output        ... >ring12_d1.70_m1_r2scan_numfreq.lastint
Gradient program output        ... >ring12_d1.70_m1_r2scan_numfreq.lastgrad
Dipole moment program output   ... >ring12_d1.70_m1_r2scan_numfreq.lastmom

List of participating nodes    ...  ring12_d1.70_m1_r2scan_numfreq.hostnames

	<< Calculating gradient on displaced geometry   4 (of  66) >>
	<< Calculating gradient on displaced geometry   2 (of  66) >>
	<< Calculating gradient on displaced geometry   1 (of  66) >>
	<< Calculating gradient on displaced geometry   3 (of  66) >>
	<< Calculating gradient on displaced geometry   6 (of  66) >>
	<< Calculating gradient on displaced geometry   8 (of  66) >>
	<< Calculating gradient on displaced geometry   7 (of  66) >>
	<< Calculating gradient on displaced geometry   5 (of  66) >>
	<< Calculating gradient on displaced geometry   9 (of  66) >>
	<< Calculating gradient on displaced geometry  10 (of  66) >>
	<< Calculating gradient on displaced geometry  11 (of  66) >>
	<< Calculating gradient on displaced geometry  12 (of  66) >>
	<< Calculating gradient on displaced geometry  13 (of  66) >>
	<< Calculating gradient on displaced geometry  14 (of  66) >>
	<< Calculating gradient on displaced geometry  15 (of  66) >>
	<< Calculating gradient on displaced geometry  16 (of  66) >>
	<< Calculating gradient on displaced geometry  17 (of  66) >>
	<< Calculating gradient on displaced geometry  18 (of  66) >>
	<< Calculating gradient on displaced geometry  19 (of  66) >>
	<< Calculating gradient on displaced geometry  20 (of  66) >>
	<< Calculating gradient on displaced geometry  21 (of  66) >>
	<< Calculating gradient on displaced geometry  22 (of  66) >>
	<< Calculating gradient on displaced geometry  23 (of  66) >>
	<< Calculating gradient on displaced geometry  24 (of  66) >>
	<< Calculating gradient on displaced geometry  25 (of  66) >>
	<< Calculating gradient on displaced geometry  26 (of  66) >>
	<< Calculating gradient on displaced geometry  27 (of  66) >>
	<< Calculating gradient on displaced geometry  28 (of  66) >>
	<< Calculating gradient on displaced geometry  29 (of  66) >>
	<< Calculating gradient on displaced geometry  30 (of  66) >>
	<< Calculating gradient on displaced geometry  31 (of  66) >>
	<< Calculating gradient on displaced geometry  32 (of  66) >>
	<< Calculating gradient on displaced geometry  33 (of  66) >>
	<< Calculating gradient on displaced geometry  34 (of  66) >>
	<< Calculating gradient on displaced geometry  35 (of  66) >>
	<< Calculating gradient on displaced geometry  36 (of  66) >>
	<< Calculating gradient on displaced geometry  37 (of  66) >>
	<< Calculating gradient on displaced geometry  38 (of  66) >>
	<< Calculating gradient on displaced geometry  39 (of  66) >>
	<< Calculating gradient on displaced geometry  40 (of  66) >>
	<< Calculating gradient on displaced geometry  41 (of  66) >>
	<< Calculating gradient on displaced geometry  42 (of  66) >>
	<< Calculating gradient on displaced geometry  43 (of  66) >>
	<< Calculating gradient on displaced geometry  44 (of  66) >>
	<< Calculating gradient on displaced geometry  45 (of  66) >>
	<< Calculating gradient on displaced geometry  46 (of  66) >>
	<< Calculating gradient on displaced geometry  47 (of  66) >>
	<< Calculating gradient on displaced geometry  48 (of  66) >>
	<< Calculating gradient on displaced geometry  49 (of  66) >>
	<< Calculating gradient on displaced geometry  50 (of  66) >>
	<< Calculating gradient on displaced geometry  51 (of  66) >>
	<< Calculating gradient on displaced geometry  52 (of  66) >>
	<< Calculating gradient on displaced geometry  53 (of  66) >>
	<< Calculating gradient on displaced geometry  54 (of  66) >>
	<< Calculating gradient on displaced geometry  55 (of  66) >>
	<< Calculating gradient on displaced geometry  56 (of  66) >>
	<< Calculating gradient on displaced geometry  57 (of  66) >>
	<< Calculating gradient on displaced geometry  58 (of  66) >>
	<< Calculating gradient on displaced geometry  59 (of  66) >>
	<< Calculating gradient on displaced geometry  60 (of  66) >>
	<< Calculating gradient on displaced geometry  61 (of  66) >>
	<< Calculating gradient on displaced geometry  62 (of  66) >>
	<< Calculating gradient on displaced geometry  63 (of  66) >>
	<< Calculating gradient on displaced geometry  64 (of  66) >>
	<< Calculating gradient on displaced geometry  65 (of  66) >>
	<< Calculating gradient on displaced geometry  66 (of  66) >>

-----------------------
VIBRATIONAL FREQUENCIES
-----------------------

Scaling factor for frequencies =  1.000000000  (already applied!)

     0:       0.00 cm**-1
     1:       0.00 cm**-1
     2:       0.00 cm**-1
     3:       0.00 cm**-1
     4:       0.00 cm**-1
     5:       0.00 cm**-1
     6:      59.11 cm**-1
     7:      59.30 cm**-1
     8:      78.46 cm**-1
     9:      78.97 cm**-1
    10:     122.32 cm**-1
    11:     123.18 cm**-1
    12:     189.26 cm**-1
    13:     189.26 cm**-1
    14:     278.48 cm**-1
    15:     279.84 cm**-1
    16:     332.96 cm**-1
    17:     333.38 cm**-1
    18:     392.70 cm**-1
    19:     392.93 cm**-1
    20:     405.73 cm**-1
    21:     437.64 cm**-1
    22:     437.64 cm**-1
    23:     453.83 cm**-1
    24:     458.66 cm**-1
    25:     623.02 cm**-1
    26:     623.03 cm**-1
    27:     916.33 cm**-1
    28:     918.01 cm**-1
    29:    1158.00 cm**-1
    30:    1158.05 cm**-1
    31:    1441.46 cm**-1
    32:    1443.96 cm**-1
    33:    1650.87 cm**-1
    34:    1650.96 cm**-1
    35:    1725.31 cm**-1


------------
NORMAL MODES
------------

These modes are the Cartesian displacements weighted by the diagonal matrix
M(i,i)=1/sqrt(m[i]) where m[i] is the mass of the displaced atom
Thus, these vectors are normalized but *not* orthogonal

                  0          1          2          3          4          5    
      0       0.000000   0.000000   0.000000   0.000000   0.000000   0.000000
      1       0.000000   0.000000   0.000000   0.000000   0.000000   0.000000
      2       0.000000   0.000000   0.000000   0.000000   0.000000   0.000000
      3       0.000000   0.000000   0.000000   0.000000   0.000000   0.000000
      4       0.000000   0.000000   0.000000   0.000000   0.000000   0.000000
      5       0.000000   0.000000   0.000000   0.000000   0.000000   0.000000
      6       0.000000   0.000000   0.000000   0.000000   0.000000   0.000000
      7       0.000000   0.000000   0.000000   0.000000   0.000000   0.000000
      8       0.000000   0.000000   0.000000   0.000000   0.000000   0.000000
      9       0.000000   0.000000   0.000000   0.000000   0.000000   0.000000
     10       0.000000   0.000000   0.000000   0.000000   0.000000   0.000000
     11       0.000000   0.000000   0.000000   0.000000   0.000000   0.000000
     12       0.000000   0.000000   0.000000   0.000000   0.000000   0.000000
     13       0.000000   0.000000   0.000000   0.000000   0.000000   0.000000
     14       0.000000   0.000000   0.000000   0.000000   0.000000   0.000000
     15       0.000000   0.000000   0.000000   0.000000   0.000000   0.000000
     16       0.000000   0.000000   0.000000   0.000000   0.000000   0.000000
     17       0.000000   0.000000   0.000000   0.000000   0.000000   0.000000
     18       0.000000   0.000000   0.000000   0.000000   0.000000   0.000000
     19       0.000000   0.000000   0.000000   0.000000   0.000000   0.000000
     20       0.000000   0.000000   0.000000   0.000000   0.000000   0.000000
     21       0.000000   0.000000   0.000000   0.000000   0.000000   0.000000
     22       0.000000   0.000000   0.000000   0.000000   0.000000   0.000000
     23       0.000000   0.000000   0.000000   0.000000   0.000000   0.000000
     24       0.000000   0.000000   0.000000   0.000000   0.000000   0.000000
     25       0.000000   0.000000   0.000000   0.000000   0.000000   0.000000
     26       0.000000   0.000000   0.000000   0.000000   0.000000   0.000000
     27       0.000000   0.000000   0.000000   0.000000   0.000000   0.000000
     28       0.000000   0.000000   0.000000   0.000000   0.000000   0.000000
     29       0.000000   0.000000   0.000000   0.000000   0.000000   0.000000
     30       0.000000   0.000000   0.000000   0.000000   0.000000   0.000000
     31       0.000000   0.000000   0.000000   0.000000   0.000000   0.000000
     32       0.000000   0.000000   0.000000   0.000000   0.000000   0.000000
     33       0.000000   0.000000   0.000000   0.000000   0.000000   0.000000
     34       0.000000   0.000000   0.000000   0.000000   0.000000   0.000000
     35       0.000000   0.000000   0.000000   0.000000   0.000000   0.000000
                  6          7          8          9         10         11    
      0      -0.368517   0.033515  -0.000000   0.000001  -0.346180   0.173537
      1      -0.015131  -0.174131   0.000001   0.000004   0.054214   0.109097
      2       0.000001   0.000004   0.408076   0.000735   0.000001   0.000003
      3      -0.255312  -0.210002   0.000000   0.000007   0.098150   0.330630
      4       0.018929  -0.237734   0.000001   0.000006   0.180457   0.129032
      5       0.000003   0.000009   0.203665   0.353932  -0.000001  -0.000000
      6      -0.058361  -0.231525   0.000002   0.000006   0.220855   0.006741
      7       0.216297  -0.253661   0.000002   0.000004   0.273108  -0.204774
      8       0.000002   0.000004  -0.204948   0.353175  -0.000002  -0.000003
      9      -0.014751  -0.175012   0.000002   0.000004   0.107885  -0.053490
     10       0.366429  -0.033759   0.000002  -0.000003  -0.176092  -0.346626
     11      -0.000001  -0.000004  -0.408053  -0.000741  -0.000001  -0.000002
     12       0.018984  -0.239251   0.000003   0.000005   0.126920  -0.179464
     13       0.254242   0.212512  -0.000002  -0.000007  -0.330002   0.096308
     14      -0.000003  -0.000008  -0.203664  -0.353903   0.000001   0.000001
     15       0.214904  -0.253528   0.000003   0.000002  -0.207534  -0.273179
     16       0.058715   0.232538  -0.000003  -0.000004  -0.005505   0.220077
     17      -0.000001  -0.000005   0.204922  -0.353178   0.000002   0.000003
     18       0.365000  -0.030072  -0.000001  -0.000002  -0.348931   0.175268
     19       0.015210   0.175032  -0.000002  -0.000003   0.054593   0.107352
     20       0.000001   0.000003   0.408058   0.000716   0.000001   0.000002
     21       0.255327   0.212799  -0.000004  -0.000004   0.096661   0.329288
     22      -0.017835   0.238321  -0.000003  -0.000003   0.181234   0.126310
     23       0.000002   0.000008   0.203687   0.353907  -0.000002  -0.000001
     24       0.059950   0.231075  -0.000002  -0.000004   0.221383   0.004029
     25      -0.213779   0.251000  -0.000001  -0.000003   0.275919  -0.208884
     26       0.000001   0.000005  -0.204929   0.353203  -0.000002  -0.000003
     27       0.015643   0.174149  -0.000001  -0.000003   0.108477  -0.055472
     28      -0.366797   0.030144   0.000003  -0.000001  -0.173088  -0.347965
     29      -0.000000  -0.000002  -0.408082  -0.000721  -0.000000  -0.000002
     30      -0.017631   0.236739  -0.000001  -0.000005   0.128017  -0.182239
     31      -0.256663  -0.210261   0.000002   0.000004  -0.329203   0.098251
     32      -0.000002  -0.000009  -0.203676  -0.353929   0.000001   0.000000
     33      -0.215236   0.251115   0.000001  -0.000006  -0.205703  -0.275649
     34      -0.059618  -0.230000   0.000001   0.000006  -0.005634   0.221822
     35      -0.000002  -0.000007   0.204942  -0.353196   0.000002   0.000002
                 12         13         14         15         16         17    
      0      -0.000000  -0.000001  -0.004171   0.401137   0.000000  -0.000001
      1      -0.000000   0.000000  -0.074777  -0.000672   0.000000   0.000000
      2      -0.084598   0.399057   0.000000  -0.000000  -0.000119   0.408252
      3      -0.000001  -0.000000  -0.318847  -0.144816  -0.000000   0.000002
      4      -0.000001   0.000000  -0.140059  -0.157897   0.000000   0.000001
      5      -0.399593  -0.084430   0.000000   0.000000   0.353614  -0.204052
      6      -0.000000   0.000000   0.143337  -0.155180   0.000000  -0.000001
      7       0.000000   0.000001   0.321802  -0.138595   0.000000  -0.000001
      8       0.084999  -0.399471  -0.000000  -0.000000  -0.353516  -0.204190
      9      -0.000000   0.000000   0.074861   0.000704   0.000000  -0.000000
     10       0.000000   0.000001  -0.003998   0.401101  -0.000000   0.000001
     11       0.399055   0.084602  -0.000000  -0.000000  -0.000091   0.408235
     12      -0.000000   0.000000   0.140103   0.157957   0.000000   0.000001
     13       0.000000   0.000000  -0.318623  -0.144976  -0.000000  -0.000000
     14      -0.084408   0.399596   0.000000   0.000000   0.353610  -0.204022
     15      -0.000002   0.000001  -0.321304   0.138278   0.000000   0.000001
     16       0.000001  -0.000000   0.143073  -0.154973  -0.000000  -0.000001
     17      -0.399483  -0.084960   0.000000  -0.000000  -0.353500  -0.204233
     18       0.000001  -0.000000   0.004346  -0.401033   0.000000  -0.000002
     19       0.000001  -0.000000   0.074567   0.000875  -0.000000  -0.000000
     20       0.084570  -0.399066   0.000000   0.000000  -0.000124   0.408245
     21       0.000001   0.000000   0.317478   0.145419   0.000000   0.000001
     22       0.000001  -0.000000   0.139597   0.158172  -0.000000   0.000001
     23       0.399598   0.084382  -0.000001   0.000000   0.353614  -0.204001
     24       0.000001  -0.000000  -0.142707   0.154938  -0.000001  -0.000001
     25       0.000000  -0.000000  -0.320305   0.138024  -0.000001  -0.000001
     26      -0.084942   0.399479   0.000000  -0.000000  -0.353492  -0.204244
     27       0.000000  -0.000000  -0.074477  -0.000803  -0.000000  -0.000000
     28      -0.000001  -0.000000   0.003905  -0.400864   0.000002   0.000001
     29      -0.399062  -0.084578   0.000001  -0.000000  -0.000109   0.408260
     30       0.000000  -0.000000  -0.139677  -0.157850   0.000001   0.000000
     31      -0.000001  -0.000000   0.317934   0.144599  -0.000001  -0.000000
     32       0.084406  -0.399582  -0.000000   0.000001   0.353597  -0.204037
     33       0.000000  -0.000000   0.321056  -0.138749  -0.000001   0.000000
     34      -0.000001  -0.000000  -0.143115   0.155206   0.000001  -0.000000
     35       0.399458   0.084972  -0.000001  -0.000000  -0.353484  -0.204213
                 18         19         20         21         22         23    
      0      -0.046159   0.404089   0.290956   0.000000   0.000000  -0.000003
      1      -0.034583  -0.003468  -0.000169  -0.000000   0.000000   0.000000
      2       0.000000   0.000001   0.000002  -0.303188  -0.273909   0.288878
      3      -0.154373  -0.313517  -0.251488  -0.000001  -0.000001  -0.000003
      4      -0.052231  -0.197557  -0.145639  -0.000000  -0.000001  -0.000002
      5       0.000000  -0.000000  -0.000002   0.398955   0.085794  -0.288520
      6       0.181576   0.095486   0.145899   0.000001  -0.000000  -0.000001
      7       0.272151   0.221132   0.251742   0.000001  -0.000000  -0.000002
      8      -0.000001  -0.000001   0.000001  -0.388218   0.125732   0.288571
      9      -0.003884   0.034561   0.000089  -0.000000  -0.000000  -0.000000
     10      -0.403261  -0.043892  -0.291693  -0.000002  -0.000000  -0.000004
     11       0.000001   0.000002  -0.000000   0.273868  -0.303162  -0.289002
     12      -0.198307   0.053530  -0.145313  -0.000001   0.000000   0.000001
     13       0.314448  -0.156464   0.250227   0.000001  -0.000000  -0.000002
     14       0.000000  -0.000001  -0.000002  -0.085745   0.398930   0.288635
     15       0.220985  -0.274228   0.249044   0.000001   0.000000   0.000003
     16      -0.095546   0.182930  -0.144018  -0.000001  -0.000000  -0.000002
     17      -0.000001   0.000000   0.000001  -0.125800  -0.388155  -0.288624
     18      -0.044584   0.406014  -0.287691  -0.000001  -0.000000   0.000004
     19      -0.034815  -0.003874  -0.000110  -0.000000   0.000000  -0.000000
     20      -0.000000   0.000001  -0.000001   0.303235   0.273782   0.288980
     21      -0.157342  -0.317099   0.247456   0.000000   0.000001   0.000002
     22      -0.053936  -0.199839   0.143401   0.000000   0.000001   0.000001
     23       0.000002  -0.000001   0.000000  -0.398998  -0.085672  -0.288555
     24       0.182923   0.096485  -0.143387   0.000000  -0.000000   0.000002
     25       0.274448   0.222893  -0.247435   0.000000  -0.000001   0.000004
     26      -0.000003  -0.000000   0.000000   0.388214  -0.125840   0.288507
     27      -0.003925   0.034504   0.000068   0.000000   0.000000  -0.000000
     28      -0.406676  -0.047820   0.287472  -0.000000   0.000002   0.000002
     29       0.000003   0.000002  -0.000001  -0.273834   0.303254  -0.288861
     30      -0.199812   0.052708   0.143820  -0.000000   0.000001  -0.000002
     31       0.316662  -0.155872  -0.248567   0.000000  -0.000001   0.000004
     32      -0.000002  -0.000001   0.000000   0.085728  -0.399036   0.288479
     33       0.222902  -0.272534  -0.249453   0.000000  -0.000002  -0.000002
     34      -0.096659   0.181831   0.144787   0.000000   0.000001   0.000001
     35       0.000000  -0.000001  -0.000001   0.125784   0.388283  -0.288489
                 24         25         26         27         28         29    
      0       0.288421  -0.287783   0.026980  -0.175318   0.000142  -0.082260
      1      -0.000102   0.027047   0.287126   0.000472   0.369208   0.285969
      2       0.000003   0.000000  -0.000000   0.000000  -0.000000  -0.000000
      3       0.250232  -0.166625  -0.235232   0.083642  -0.223409   0.056445
      4       0.144672  -0.235895   0.167093  -0.320216   0.083739  -0.274446
      5      -0.000003  -0.000000  -0.000000  -0.000000   0.000000   0.000000
      6       0.144108   0.120126  -0.262770   0.320470   0.083012   0.287872
      7       0.249291  -0.262173  -0.119639  -0.084138  -0.223238  -0.070955
      8       0.000003   0.000000   0.000000  -0.000000   0.000000  -0.000000
      9      -0.000027   0.287086  -0.027028   0.000388   0.369253  -0.267015
     10       0.289568  -0.027279  -0.288014   0.175245  -0.000211   0.088058
     11      -0.000004  -0.000000  -0.000000   0.000000   0.000000   0.000000
     12      -0.144308   0.166904   0.235757  -0.320292   0.083709  -0.204634
     13       0.249700   0.235364  -0.166407  -0.083599   0.223531  -0.213864
     14       0.000004  -0.000000  -0.000000   0.000000  -0.000000   0.000000
     15      -0.249452  -0.119692   0.262319  -0.084084  -0.223307   0.209529
     16       0.144128   0.262885   0.119961  -0.320430  -0.083076   0.185331
     17      -0.000004  -0.000000   0.000000  -0.000000  -0.000000  -0.000000
     18      -0.289824  -0.287837   0.026922   0.175298  -0.000249  -0.082300
     19       0.000001   0.027063   0.287133  -0.000322  -0.369209   0.286011
     20       0.000004   0.000000  -0.000000   0.000000  -0.000000  -0.000000
     21      -0.249198  -0.166601  -0.235283  -0.083683   0.223409   0.056462
     22      -0.144008  -0.235856   0.167057   0.320214  -0.083639  -0.274525
     23      -0.000004  -0.000000   0.000000  -0.000000  -0.000000   0.000000
     24      -0.144541   0.120172  -0.262797  -0.320279  -0.082991   0.287969
     25      -0.250094  -0.262163  -0.119715   0.084135   0.223213  -0.070984
     26       0.000003   0.000000  -0.000000  -0.000000   0.000000  -0.000000
     27       0.000072   0.287101  -0.027019  -0.000407  -0.369164  -0.267061
     28      -0.288734  -0.027286  -0.288036  -0.175404   0.000162   0.088086
     29      -0.000003  -0.000000   0.000000   0.000000   0.000000   0.000000
     30       0.144486   0.166888   0.235789   0.320140  -0.083747  -0.204711
     31      -0.249713   0.235390  -0.166490   0.083635  -0.223485  -0.213917
     32       0.000003   0.000000  -0.000000   0.000000  -0.000000  -0.000000
     33       0.250030  -0.119738   0.262361   0.084125   0.223342   0.209704
     34      -0.144707   0.262903   0.119929   0.320408   0.083004   0.185236
     35      -0.000003  -0.000000   0.000000  -0.000000   0.000000   0.000000
                 30         31         32         33         34         35    
      0       0.088101   0.000133   0.074524  -0.024733  -0.024815   0.000009
      1       0.266904   0.401363  -0.000596   0.287274  -0.286381   0.288104
      2      -0.000000  -0.000000   0.000000   0.000000  -0.000000  -0.000000
      3      -0.213906   0.043967  -0.206422   0.204987  -0.022899   0.144708
      4       0.204698  -0.205628   0.282537  -0.336347   0.107084  -0.250175
      5       0.000000  -0.000000  -0.000000   0.000000  -0.000000   0.000000
      6       0.185268   0.206641   0.281842  -0.336021  -0.108155  -0.250123
      7      -0.209520  -0.044733  -0.206286   0.204911   0.023583   0.144694
      8      -0.000000   0.000000   0.000000  -0.000000  -0.000000   0.000000
      9       0.286001  -0.401347   0.000791   0.286443   0.287278   0.287965
     10       0.082298   0.000165   0.074573  -0.024793   0.024694   0.000008
     11       0.000000  -0.000000   0.000000   0.000000   0.000000  -0.000000
     12      -0.274503   0.205600  -0.282647  -0.107158  -0.336330  -0.250036
     13      -0.056478   0.043938  -0.206405  -0.022960  -0.205030  -0.144656
     14      -0.000000  -0.000000  -0.000000   0.000000   0.000000   0.000000
     15      -0.070978   0.044709   0.206214  -0.023513   0.204994   0.144643
     16      -0.287882   0.206636   0.281895  -0.108074   0.336040   0.250048
     17      -0.000000   0.000000  -0.000000   0.000000  -0.000000  -0.000000
     18       0.088109  -0.000124  -0.074506  -0.024728  -0.024818   0.000032
     19       0.267007  -0.401355   0.000676   0.287205  -0.286468  -0.288005
     20      -0.000000   0.000000  -0.000000  -0.000000   0.000000  -0.000000
     21      -0.213922  -0.043998   0.206411   0.204940  -0.022966  -0.144749
     22       0.204629   0.205642  -0.282581  -0.336264   0.107193   0.250181
     23      -0.000000  -0.000000  -0.000000   0.000000  -0.000000   0.000000
     24       0.185392  -0.206614  -0.281854  -0.335971  -0.108031   0.250229
     25      -0.209585   0.044682   0.206245   0.204878   0.023515  -0.144762
     26       0.000000   0.000000   0.000000   0.000000  -0.000000  -0.000000
     27       0.286028   0.401374  -0.000757   0.286403   0.287117  -0.288141
     28       0.082341  -0.000100  -0.074508  -0.024788   0.024693   0.000028
     29       0.000000  -0.000000   0.000000   0.000000  -0.000000   0.000000
     30      -0.274576  -0.205660   0.282614  -0.107140  -0.336202   0.250191
     31      -0.056511  -0.044004   0.206346  -0.022951  -0.204961   0.144713
     32      -0.000000  -0.000000  -0.000000  -0.000000   0.000000   0.000000
     33      -0.071015  -0.044680  -0.206211  -0.023509   0.204827  -0.144727
     34      -0.287902  -0.206606  -0.281895  -0.108092   0.336039  -0.250178
     35       0.000000   0.000000  -0.000000  -0.000000   0.000000  -0.000000


-----------
IR SPECTRUM
-----------

 Mode   freq       eps      Int      T**2         TX        TY        TZ
       cm**-1   L/(mol*cm) km/mol    a.u.
----------------------------------------------------------------------------
  6:     59.11   0.000000    0.00  0.000000  (-0.000085  0.000014 -0.000000)
  7:     59.30   0.000000    0.00  0.000000  (-0.000115  0.000465  0.000000)
  8:     78.46   0.000000    0.00  0.000000  (-0.000000  0.000000 -0.000001)
  9:     78.97   0.000000    0.00  0.000000  ( 0.000000 -0.000000  0.000003)
 10:    122.32   0.000000    0.00  0.000000  ( 0.000077 -0.000097  0.000000)
 11:    123.18   0.000000    0.00  0.000000  (-0.000137  0.000154 -0.000000)
 12:    189.26   0.000000    0.00  0.000000  (-0.000000  0.000000 -0.000003)
 13:    189.26   0.000000    0.00  0.000000  (-0.000000  0.000000 -0.000000)
 14:    278.48   0.000000    0.00  0.000000  (-0.000005  0.000079  0.000000)
 15:    279.84   0.000000    0.00  0.000000  ( 0.000308 -0.000384 -0.000000)
 16:    332.96   0.000000    0.00  0.000000  (-0.000000  0.000000  0.000001)
 17:    333.38   0.000000    0.00  0.000000  ( 0.000000  0.000000  0.000028)
 18:    392.70   0.000000    0.00  0.000000  (-0.000063  0.000522  0.000000)
 19:    392.93   0.000000    0.00  0.000000  (-0.000382  0.000074 -0.000000)
 20:    405.73   0.000000    0.00  0.000000  ( 0.000037 -0.000003 -0.000000)
 21:    437.64   0.000000    0.00  0.000000  ( 0.000000 -0.000000 -0.000000)
 22:    437.64   0.000000    0.00  0.000000  (-0.000000  0.000000 -0.000001)
 23:    453.83   0.000000    0.00  0.000000  ( 0.000000 -0.000000  0.000001)
 24:    458.66   0.000000    0.00  0.000000  (-0.000108  0.000406  0.000000)
 25:    623.02   0.005473   27.66  0.002741  (-0.052121 -0.004966  0.000000)
 26:    623.03   0.005461   27.60  0.002735  ( 0.005023 -0.052058  0.000000)
 27:    916.33   0.000000    0.00  0.000000  ( 0.000155  0.000094 -0.000000)
 28:    918.01   0.000000    0.00  0.000000  ( 0.000159  0.000087 -0.000000)
 29:   1158.00   0.000000    0.00  0.000000  ( 0.000099  0.000064  0.000000)
 30:   1158.05   0.000001    0.00  0.000000  (-0.000293 -0.000257  0.000000)
 31:   1441.46   0.000000    0.00  0.000000  (-0.000042 -0.000005  0.000000)
 32:   1443.96   0.000000    0.00  0.000000  (-0.000162 -0.000095  0.000000)
 33:   1650.87   0.000000    0.00  0.000000  ( 0.000026  0.000050 -0.000000)
 34:   1650.96   0.000000    0.00  0.000000  ( 0.000137  0.000082 -0.000000)
 35:   1725.31   0.000000    0.00  0.000000  (-0.000289  0.000068  0.000000)

* The epsilon (eps) is given for a Dirac delta lineshape.
** The dipole moment derivative (T) already includes vibrational overlap.

The first frequency considered to be a vibration is 6
The total number of vibrations considered is 30


--------------------------
THERMOCHEMISTRY AT 298.15K
--------------------------

Temperature         ...   298.15 K
Pressure            ...     1.00 atm
Total Mass          ...   129.72 AMU
Quasi RRHO          ...     True
Cut-Off Frequency   ...     1.00 cm^-1

Throughout the following assumptions are being made:
  (1) The electronic state is orbitally nondegenerate
  (2) There are no thermally accessible electronically excited states
  (3) Hindered rotations indicated by low frequency modes are not
      treated as such but are treated as vibrations and this may
      cause some error
  (4) All equations used are the standard statistical mechanics
      equations for an ideal gas
  (5) All vibrations are strictly harmonic

freq.      59.11  E(vib)   ...       0.51 
freq.      59.30  E(vib)   ...       0.51 
freq.      78.46  E(vib)   ...       0.49 
freq.      78.97  E(vib)   ...       0.49 
freq.     122.32  E(vib)   ...       0.43 
freq.     123.18  E(vib)   ...       0.43 
freq.     189.26  E(vib)   ...       0.36 
freq.     189.26  E(vib)   ...       0.36 
freq.     278.48  E(vib)   ...       0.28 
freq.     279.84  E(vib)   ...       0.28 
freq.     332.96  E(vib)   ...       0.24 
freq.     333.38  E(vib)   ...       0.24 
freq.     392.70  E(vib)   ...       0.20 
freq.     392.93  E(vib)   ...       0.20 
freq.     405.73  E(vib)   ...       0.19 
freq.     437.64  E(vib)   ...       0.17 
freq.     437.64  E(vib)   ...       0.17 
freq.     453.83  E(vib)   ...       0.16 
freq.     458.66  E(vib)   ...       0.16 
freq.     623.02  E(vib)   ...       0.09 
freq.     623.03  E(vib)   ...       0.09 
freq.     916.33  E(vib)   ...       0.03 
freq.     918.01  E(vib)   ...       0.03 
freq.    1158.00  E(vib)   ...       0.01 
freq.    1158.05  E(vib)   ...       0.01 
freq.    1441.46  E(vib)   ...       0.00 
freq.    1443.96  E(vib)   ...       0.00 
freq.    1650.87  E(vib)   ...       0.00 
freq.    1650.96  E(vib)   ...       0.00 
freq.    1725.31  E(vib)   ...       0.00 

------------
INNER ENERGY
------------

The inner energy is: U= E(el) + E(ZPE) + E(vib) + E(rot) + E(trans)
    E(el)   - is the total energy from the electronic structure calculation
              = E(kin-el) + E(nuc-el) + E(el-el) + E(nuc-nuc)
    E(ZPE)  - the the zero temperature vibrational energy from the frequency calculation
    E(vib)  - the the finite temperature correction to E(ZPE) due to population
              of excited vibrational states
    E(rot)  - is the rotational thermal energy
    E(trans)- is the translational thermal energy

Summary of contributions to the inner energy U:
Electronic energy                ...   -297.56448455 Eh
Zero point energy                ...      0.04194710 Eh      26.32 kcal/mol
Thermal vibrational correction   ...      0.00983669 Eh       6.17 kcal/mol
Thermal rotational correction    ...      0.00141627 Eh       0.89 kcal/mol
Thermal translational correction ...      0.00141627 Eh       0.89 kcal/mol
-----------------------------------------------------------------------
Total thermal energy                   -297.50986821 Eh


Summary of corrections to the electronic energy:
(perhaps to be used in another calculation)
Total thermal correction                  0.01266923 Eh       7.95 kcal/mol
Non-thermal (ZPE) correction              0.04194710 Eh      26.32 kcal/mol
-----------------------------------------------------------------------
Total correction                          0.05461633 Eh      34.27 kcal/mol


--------
ENTHALPY
--------

The enthalpy is H = U + kB*T
                kB is Boltzmann's constant
Total thermal energy              ...   -297.50986821 Eh 
Thermal Enthalpy correction       ...      0.00094421 Eh       0.59 kcal/mol
-----------------------------------------------------------------------
Total Enthalpy                    ...   -297.50892400 Eh


Note: Rotational entropy computed according to Herzberg 
Infrared and Raman Spectra, Chapter V,1, Van Nostrand Reinhold, 1945 
Point Group:  D4h, Symmetry Number:   8  
Rotational constants in cm-1:     0.029353     0.029353     0.014676 

Vibrational entropy computed according to the QRRHO of S. Grimme
Chem.Eur.J. 2012 18 9955 using a reference frequency of 100.0 cm-1


-------
ENTROPY
-------

The entropy contributions are T*S = T*(S(el)+S(vib)+S(rot)+S(trans))
     S(el)   - electronic entropy
     S(vib)  - vibrational entropy
     S(rot)  - rotational entropy
     S(trans)- translational entropy
The entropies will be listed as multiplied by the temperature to get
units of energy

Electronic entropy                ...      0.00000000 Eh      0.00 kcal/mol
Vibrational entropy               ...      0.01755250 Eh     11.01 kcal/mol
Rotational entropy                ...      0.01287179 Eh      8.08 kcal/mol
Translational entropy             ...      0.01923977 Eh     12.07 kcal/mol
-----------------------------------------------------------------------
Final entropy term                ...      0.04966406 Eh     31.16 kcal/mol

In case the symmetry of your molecule has not been determined correctly
or in case you have a reason to use a different symmetry number we print 
out the resulting rotational entropy values for sn=1,12:

 non-linear molecules -----------------------------------
|  sn= 1 | S(rot)=       0.01483516 Eh      9.31 kcal/mol|
|  sn= 2 | S(rot)=       0.01418070 Eh      8.90 kcal/mol|
|  sn= 3 | S(rot)=       0.01379787 Eh      8.66 kcal/mol|
|  sn= 4 | S(rot)=       0.01352624 Eh      8.49 kcal/mol|
|  sn= 5 | S(rot)=       0.01331555 Eh      8.36 kcal/mol|
|  sn= 6 | S(rot)=       0.01314341 Eh      8.25 kcal/mol|
|  sn= 7 | S(rot)=       0.01299786 Eh      8.16 kcal/mol|
|  sn= 8 | S(rot)=       0.01287179 Eh      8.08 kcal/mol|
|  sn= 9 | S(rot)=       0.01276058 Eh      8.01 kcal/mol|
|  sn=10 | S(rot)=       0.01266110 Eh      7.94 kcal/mol|
|  sn=11 | S(rot)=       0.01257111 Eh      7.89 kcal/mol|
|  sn=12 | S(rot)=       0.01248895 Eh      7.84 kcal/mol|
 linear molecules ---------------------------------------
|  Dinfh | S(rot)=       0.00931167 Eh      5.84 kcal/mol|
|  Cinfv | S(rot)=       0.00996613 Eh      6.25 kcal/mol|
 --------------------------------------------------------


-------------------
GIBBS FREE ENERGY
-------------------

The Gibbs free energy is G = H - T*S

Total enthalpy                    ...   -297.50892400 Eh 
Total entropy correction          ...     -0.04966406 Eh    -31.16 kcal/mol
-----------------------------------------------------------------------
Final Gibbs free energy         ...   -297.55858806 Eh

For completeness - the Gibbs free energy minus the electronic energy
G-E(el)                           ...      0.00589649 Eh      3.70 kcal/mol



--------------------------------
SUGGESTED CITATIONS FOR THIS RUN
--------------------------------

Below you find a list of papers that are relevant to this ORCA run
We neither can nor want to force you to cite these papers, but we appreciate if you do
You receive ORCA, which is the product of decades of hard work by many enthusiastic individuals, for free
The only thing we kindly ask in return is that you cite our papers,
We deeply appreciate it, if you show your appreciation for ORCA by not just citing the generic ORCA reference.

Please note that relegating all ORCA citations to the supporting information does *not* help us.
SI sections are not indexed - citations you put there will not count into any citation statistics
But we need these citations in order to attract the funding resources that allow us to do what we are doing

Therefore, if you are a happy ORCA user, please consider citing a few of the papers listed below in the main body of your paper

In addition to the list printed below, the program has created the file ring12_d1.70_m1_r2scan_numfreq.bibtex that contains the list in bibtex format
You can import this file easily into all common literature databanks and citation aid programs

It goes without saying that in many instances, there are alternative algorithms to achieve similar
results as the ones you have gotten from ORCA. It is, of course, also the case that in some instances
ORCA just re-implements algorithms worked out by others. We are fully aware of that and we are also
fully appreciative of our colleagues work. Hence this citation list should not be read as indicating
that the listed papers, which are focused on our own work, are the only ones worth citing. It simply
meant to make it easier for users to cite ORCA specific papers. It is not a substitute for doing your
own literature research and citing the relevant literature in a scientifically appropriate manner.

List of essential papers. We consider these as the minimum necessary citations

  1. Grimme, S.; Hansen, A.; Ehlert, S.; Mewes, J.
     r2SCAN-3c: A 'Swiss army knife' composite electronic-structure method
     J. Chem. Phys. 2021 154 , 064103
     doi.org/10.1063/5.0040021
  2. Neese, F.
     Software update: the ORCA program system, version 6.0
     WIRES Comput. Molec. Sci. 2025 15(1), e70019
     doi.org/10.1002/wcms.70019

List of papers to cite with high priority. The work reported in these papers was absolutely
necessary for this run to complete.
Our perspective: the developers of density functionals and basis sets usually get cited in chemistry papers
Good! But without the algorithms to do something with them, the functionals or basis sets would not do anything.
Hence, in our opinion, the algorithm design and method developments papers are equally worthy of getting cited

  1. Neese, F.
     An improvement of the resolution of the identity approximation for the formation of the Coulomb matrix
     J. Comp. Chem. 2003 24(14), 1740-1747
     doi.org/10.1002/jcc.10318
  2. Caldeweyher, E.; Bannwarth, C.; Grimme, S.
     Extension of the D3 dispersion coefficient model
     J. Chem. Phys. 2017 147 , 034112
     doi.org/10.1063/1.4993215
  3. Lehtola, S.; Steigemann, C.; Oliveira, M.; Marques, M.
     Recent developments in Libxc - A comprehensive library of functionals for density functional theory
     Software X 2018 7 , 
     doi.org/10.1016/j.softx.2017.11.002
  4. Caldeweyher, E.; Ehlert, S.; Hansen, A.; Neugebauer, H.; Spicher, S.; Bannwarth, C.; Grimme, S.
     A generally applicable atomic-charge dependent London dispersion correction
     J. Chem. Phys. 2019 150 , 154122
     doi.org/10.1063/1.5090222
  5. Neese, F.
     The SHARK Integral Generation and Digestion System
     J. Comp. Chem. 2022 44(3), 381
     doi.org/10.1002/jcc.26942

List of suggested additional citations. These are papers that are important in the 'surrounding' of 
of this run, or papers that preceded the highly important papers. If you like your results we are grateful for a citation.

  1. Neese, F.
     The ORCA program system
     WIRES Comput. Molec. Sci. 2012 2(1), 73-78
     doi.org/10.1002/wcms.81
  2. Neese, F.
     Software update: the ORCA program system, version 4.0
     WIRES Comput. Molec. Sci. 2018 8(1), 1-6
     doi.org/10.1002/wcms.1327
  3. Neese, F.; Wennmohs, F.; Becker, U.; Riplinger, C.
     The ORCA quantum chemistry program package
     J. Chem. Phys. 2020 152(22), 224108
     doi.org/10.1063/5.0004608
  4. Neese, F.
     Software update: The ORCA program system—Version 5.0
     WIRES Comput. Molec. Sci. 2022 12(1), e1606
     doi.org/10.1002/wcms.1606

List of optional additional citations

  1. Neese, F.
     Approximate second-order SCF convergence for spin unrestricted wavefunctions
     Chem. Phys. Lett. 2000 325(1-3), 93-98
     doi.org/10.1016/s0009-2614(00)00662-x

Timings for individual modules:

Sum of individual times          ...      373.962 sec (=   6.233 min)
Startup calculation              ...        2.763 sec (=   0.046 min)   0.7 %
SCF iterations                   ...       16.758 sec (=   0.279 min)   4.5 %
Property calculations            ...        0.662 sec (=   0.011 min)   0.2 %
SCF Gradient evaluation          ...        5.296 sec (=   0.088 min)   1.4 %
Numerical frequency calculation  ...      348.484 sec (=   5.808 min)  93.2 %
                             ****ORCA TERMINATED NORMALLY****
TOTAL RUN TIME: 0 days 0 hours 6 minutes 2 seconds 666 msec
