
                                 *****************
                                 * O   R   C   A *
                                 *****************

                                            #,                                       
                                            ###                                      
                                            ####                                     
                                            #####                                    
                                            ######                                   
                                           ########,                                 
                                     ,,################,,,,,                         
                               ,,#################################,,                 
                          ,,##########################################,,             
                       ,#########################################, ''#####,          
                    ,#############################################,,   '####,        
                  ,##################################################,,,,####,       
                ,###########''''           ''''###############################       
              ,#####''   ,,,,##########,,,,          '''####'''          '####       
            ,##' ,,,,###########################,,,                        '##       
           ' ,,###''''                  '''############,,,                           
         ,,##''                                '''############,,,,        ,,,,,,###''
      ,#''                                            '''#######################'''  
     '                                                          ''''####''''         
             ,#######,   #######,   ,#######,      ##                                
            ,#'     '#,  ##    ##  ,#'     '#,    #''#        ,####,    ,#,          
            ##       ##  ##   ,#'  ##            #'  '#       #'       ,# #          
            ##       ##  #######   ##           ,######,      #####,      #          
            '#,     ,#'  ##    ##  '#,     ,#' ,#      #,     #,   #      #          
             '#######'   ##     ##  '#######'  #'      '#     '####' #    #          



                #########################################################
                #                        -***-                          #
                #          Department of theory and spectroscopy        #
                #                                                       #
                #                      Frank Neese                      #
                #                                                       #
                #     Directorship, Architecture, Infrastructure        #
                #                    SHARK, DRIVERS                     #
                #        Core code/Algorithms in most modules           #
                #                                                       #
                #        Max Planck Institute fuer Kohlenforschung      #
                #                Kaiser Wilhelm Platz 1                 #
                #                 D-45470 Muelheim/Ruhr                 #
                #                      Germany                          #
                #                                                       #
                #                  All rights reserved                  #
                #                        -***-                          #
                #########################################################


                         Program Version 6.1.1  -  RELEASE   -
                                (GIT: $487d211c$)
                          ($2025-11-21 10:33:24 +0100$)
                                                                         
                                  - NO-DMRG VERSION -                    
                                                                         


 With contributions from (in alphabetic order):
[Max-Planck-Institut fuer Kohlenforschung]                               
  Daniel Aravena         : Magnetic Suceptibility                        
  Michael Atanasov       : Ab Initio Ligand Field Theory (pilot matlab implementation)
  Alexander A. Auer      : GIAO ZORA, VPT2 properties, NMR spectrum      
  Ute Becker             : All parallelization in ORCA, NUMFREQ, NUMCALC 
  Giovanni Bistoni       : ED, misc. LED, open-shell LED, HFLD           
  Dmytro Bykov           : pre 5.0 version of the SCF Hessian            
  Marcos Casanova-Páez   : Triplet and SCS-CIS(D). UHF-(DLPNO)-IP/EA/STEOM-CCSD. UHF-CVS-IP/STEOM-CCSD   
  Vijay G. Chilkuri      : MRCI spin determinant printing, contributions to CSF-ICE 
  Pauline Colinet        : FMM embedding                                 
  Dipayan Datta          : RHF DLPNO-CCSD density                        
  Achintya Kumar Dutta   : EOM-CC, STEOM-CC                              
  Nicolas Foglia         : Exact transition moments, OPA infrastructure, MCD improvements    
  Dmitry Ganyushin       : Spin-Orbit,Spin-Spin,Magnetic field MRCI      
  Miquel Garcia-Rates    : C-PCM and meta-GGA Hessian, CCSD/C-PCM, Gaussian charge scheme 
  Tiago L. C. Gouveia    : GS-ROHF, GS-ROCIS                             
  Yang Guo               : DLPNO-NEVPT2, F12-NEVPT2, CIM, IAO-localization        
  Andreas Hansen         : Spin unrestricted coupled pair/coupled cluster methods 
  Ingolf Harden          : AUTO-CI MPn and infrastructure                
  Benjamin Helmich-Paris : MC-RPA, TRAH-(SCF,CASSCF), AVAS, COSX integrals, SCF dyn. polar., MC-PDFT, srDFT 
  Lee Huntington         : MR-EOM, pCC                                   
  Robert Izsak           : Overlap fitted RIJCOSX, COSX-SCS-MP3, EOM     
  Riya Kayal             : Wick's Theorem for AUTO-CI, AUTO-CI UHF-CCSDT 
  Emily Kempfer          : AUTO-CI RHF CISDT and CCSDT, approximate NEVPT4
  Christian Kollmar      : KDIIS, OOCD, Brueckner-CCSD(T), CCSD density, CASPT2, CASPT2-K, improved NEVPT2 
  Axel Koslowski         : Symmetry handling                             
  Simone Kossmann        : meta-GGA functionals, TD-DFT gradient, OOMP2, (MP2 Hessian; deprecated post 5.0) 
  Lucas Lang             : DCDCAS, Hyperfine gauge corrections, ICE-SOC+SSC
  Marvin Lechner         : AUTO-CI (C++ implementation), FIC-MRCC        
  Spencer Leger          : CASSCF response                               
  Dagmar Lenk            : GEPOL surface, SMD, ORCA-2-JSON               
  Dimitrios Liakos       : Extrapolation schemes; Compound Job, Property file
  Dimitrios Manganas     : Further ROCIS development; embedding schemes. LFT, Crystal Embedding 
  Dimitrios Pantazis     : SARC Basis sets                               
  Anastasios Papadopoulos: AUTO-CI, single reference methods and gradients 
  Taras Petrenko         : pre 6.0 DFT Hessian and TD-DFT gradient,  ECA, NRVS 
  Petra Pikulova         : Analytic Raman intensities                    
  Peter Pinski           : DLPNO-MP2, DLPNO-MP2 Gradient                 
  Shashank Vittal Rao    : ES-AILFT, MagRelax                            
  Christoph Reimann      : Effective Core Potentials                     
  Marius Retegan         : Local ZFS, SOC                                
  Christoph Riplinger    : Optimizer, TS searches, QM/MM, DLPNO-CCSD(T), (RO)-DLPNO pert. Triples 
  Michael Roemelt        : Original ROCIS implementation, recursive CI coupling coefficients
  Masaaki Saitow         : Open-shell DLPNO-CCSD energy and density      
  Barbara Sandhoefer     : DKH picture change effects                    
  Yorick L. A. Schmerwitz: GMF and freeze-and-release deltaSCF, NEB S-IDPP initial path                    
  Kantharuban Sivalingam : CASSCF convergence/infrastructure, NEVPT2, NEVPT3, NEVPT4(SD), FIC-MRCI and CEPA variants
  Bernardo de Souza      : ESD, SOC TD-DFT                               
  Georgi L. Stoychev     : AutoAux, RI-MP2 NMR, DLPNO-MP2 response, X2C  
  Van Anh Tran           : RI-MP2 g-tensors                              
  Willem Van den Heuvel  : Paramagnetic NMR                              
  Zikuan Wang            : NOTCH, Electric field optimization            
  Frank Wennmohs         : Technical directorship and infrastructure     
  Hang Xu                : AUTO-CI-Response properties                   
                                                                         
[FACCTs GmbH]                                                            
  Markus Bursch, Nicolas Foglia, Miquel Garcia-Rates, Ingolf Harden, Hagen Neugebauer, Anastasios Papadopoulos, 
  Christoph Riplinger, Bernardo de Souza, Georgi L. Stoychev                                                    
                                                                 
  APM, various basis sets, CI-OPT, improved COSX, DLPNO-Multilevel,           
  DOCKER, DRACO, updates on ESD, Fragmentator, GOAT, IRC, LR-CPCM, L-BFGS, MBIS, meta-GGA TD-DFT gradient, ML-optimized integration grids, 
  MM, NACMEs, nearIR, NEB, NEB-TS, NL-DFT gradient (VV10), 2- and 3-layer-ONIOM, interface openCOSMO-RS, QMMM,   
  Crystal-QMMM, RESP, rigid body optimization, SF, symmetry and pop. for TD-DFT, various functionals, SOLVATOR                                   
                                                                         
[Other institutions]                                                     
  V. Asgeirsson          : NEB                                           
  Christoph Bannwarth    : sTDA-DFT, sTD-DFT, PBEh-3c, B97-3c, D3        
  Giovanni Bistoni       : ETS/NOCV, ADLD/ADEX, COVALED                  
  Martin Brehm           : Molecular dynamics                            
  Ronald Cardenas        : ETS/NOCV                                      
  Martina Colucci        : COVALED                                       
  Sebastian Ehlert       : rSCAN, r2SCAN, r2SCAN-3c, D4, dhf basis sets  
  Marvin Friede          : D4 for Fr, Ra, Ac-Lr                          
  Lars Goerigk           : TD-DFT with DH, B97 family of functionals     
  Stefan Grimme          : VdW corrections, initial TS optimization, DFT functionals, gCP, sTDA/sTD-DF 
  Waldemar Hujo          : DFT-NL                                        
  H. Jonsson             : NEB                                           
  Holger Kruse           : gCP                                           
  Marcel Mueller         : wB97X-3c, vDZP basis set                      
  Hagen Neugebauer       : wr2SCAN, Native XTB                           
  Gianluca Regni         : ADLD/ADEX                                     
  Tobias Risthaus        : pre 6.0 range-separated hybrid DFT and stability analysis
  Lukas Wittmann         : regularized MP2, r2SCAN double-hybrids, wr2SCAN        
                                                                         
We gratefully acknowledge several colleagues who have allowed us to      
interface, adapt or use parts of their codes:                            
  Ed Valeev, F. Pavosevic, A. Kumar             : LibInt (2-el integral package), F12 methods 
  Garnet Chan, S. Sharma, J. Yang, R. Olivares  : DMRG                   
  Ulf Ekstrom                                   : XCFun DFT Library      
  Mihaly Kallay                                 : mrcc  (arbitrary order and MRCC methods)
  Frank Weinhold                                : gennbo (NPA and NBO analysis)           
  Simon Mueller                                 : openCOSMO-RS                            
  Christopher J. Cramer and Donald G. Truhlar   : smd solvation model                     
  S Lehtola, MJT Oliveira, MAL Marques          : LibXC Library                           
  Liviu Ungur et al                             : ANISO software                          


 Your calculation uses the libint2 library for the computation of 2-el integrals
 For citations please refer to: http://libint.valeyev.net

 Your ORCA version has been built with support for libXC version: 7.0.0
 For citations please refer to: https://libxc.gitlab.io

 This ORCA versions uses:
   CBLAS   interface :  Fast vector & matrix operations
   LAPACKE interface :  Fast linear algebra routines
   SCALAPACK package :  Parallel linear algebra routines
   Shared memory     :  Shared parallel matrices
   BLAS/LAPACK       :  OpenBLAS 0.3.29  USE64BITINT DYNAMIC_ARCH NO_AFFINITY Zen SINGLE_THREADED
        Core in use  :  Zen
   Copyright (c) 2011-2014, The OpenBLAS Project


  ***********************************
  * Starting time: Fri Apr 17 14:24:23 2026
  * Host name:     vmi3233575
  * Process ID:    351978
  * Working dir.:  /root/orca_b12_vps_pack/jobs/03_numfreq
  ***********************************

NOTE: MaxCore=2000 MB was set to SCF,MP2,MDCI,CIPSI,MRCI,RASCI and CIS
      => If you want to overwrite this, your respective input block should be placed after the MaxCore statement


***************************************
The coordinates will be read from file: ../../results/02_r2scan_xyz/zigzag_chain12_d1.50_m3_r2scan.xyz
***************************************


Your calculation utilizes the geometrical counterpoise correction gCP
Please cite in your paper:
H.Kruse, S. Grimme J.Chem.Phys., 136, (2012), 154101 
   

Your calculation utilizes the atom-pairwise dispersion correction
based on EEQ partial charges (D4)


================================================================================

----- Orbital basis set information -----
Your calculation utilizes the basis: def2-mTZVPP
   Stefan Grimme, Andreas Hansen, Sebastian Ehlert, and Jan-Michael Mewes 
   J. Chem. Phys. 154, 064103 (2021). DOI: 10.1063/5.0040021

----- AuxJ basis set information -----
Your calculation utilizes the basis: def2-mTZVPP/J
   Stefan Grimme, Andreas Hansen, Sebastian Ehlert, and Jan-Michael Mewes 
   J. Chem. Phys. 154, 000000 (2021). DOI: 10.1063/5.0040021

================================================================================
                                        WARNINGS
                       Please study these warnings very carefully!
================================================================================



WARNING: SCAN, rSCAN, or r2SCAN functional requested.
  ===> : libXC variant has now been activated.


WARNING: Gradients needed for Numerical Frequencies
  ===> : Setting RunTyp to EnGrad

WARNING: your system is open-shell and RHF/RKS was chosen
  ===> : WILL SWITCH to UHF/UKS


WARNING: The environment variable RSH_COMMAND is not set!
  ===> : All Displacements for the Numerical Hessian or Gradient calculation
         will be started on localhost

================================================================================
                                       INPUT FILE
================================================================================
NAME = zigzag_chain12_d1.50_m3_r2scan_numfreq.inp
|  1> ! r2SCAN-3c TightSCF NumFreq
|  2> 
|  3> %pal
|  4>   nprocs 8
|  5> end
|  6> 
|  7> %maxcore 2000
|  8> 
|  9> * xyzfile 0 3 ../../results/02_r2scan_xyz/zigzag_chain12_d1.50_m3_r2scan.xyz
| 10> 
| 11>                          ****END OF INPUT****
================================================================================

                     *******************************
                     * Energy+Gradient Calculation *
                     *******************************

---------------------------------
CARTESIAN COORDINATES (ANGSTROEM)
---------------------------------
  B     -5.947352    0.812432   -0.000023
  B     -5.963882   -0.686241   -0.000019
  B     -4.546072    0.047665    0.000005
  B     -2.930666    0.030475    0.000009
  B     -1.382470    0.014398    0.000012
  B     -0.008642   -0.818952    0.000057
  B      0.008638    0.818615   -0.000021
  B      1.382467   -0.014685    0.000011
  B      2.930664   -0.030612    0.000008
  B      4.546073   -0.047549    0.000004
  B      5.963739    0.686565   -0.000100
  B      5.947502   -0.812111    0.000055

----------------------------
CARTESIAN COORDINATES (A.U.)
----------------------------
  NO LB      ZA    FRAG     MASS         X           Y           Z
   0 B     5.0000    0    10.810  -11.238867    1.535274   -0.000043
   1 B     5.0000    0    10.810  -11.270104   -1.296808   -0.000036
   2 B     5.0000    0    10.810   -8.590831    0.090074    0.000009
   3 B     5.0000    0    10.810   -5.538156    0.057589    0.000017
   4 B     5.0000    0    10.810   -2.612490    0.027208    0.000023
   5 B     5.0000    0    10.810   -0.016331   -1.547595    0.000108
   6 B     5.0000    0    10.810    0.016323    1.546958   -0.000040
   7 B     5.0000    0    10.810    2.612484   -0.027751    0.000021
   8 B     5.0000    0    10.810    5.538152   -0.057848    0.000015
   9 B     5.0000    0    10.810    8.590833   -0.089855    0.000008
  10 B     5.0000    0    10.810   11.269833    1.297420   -0.000189
  11 B     5.0000    0    10.810   11.239150   -1.534667    0.000104

--------------------------------
INTERNAL COORDINATES (ANGSTROEM)
--------------------------------
 B      0   0   0     0.000000000000     0.00000000     0.00000000
 B      1   0   0     1.498764158180     0.00000000     0.00000000
 B      1   2   0     1.596387861227    62.00784730     0.00000000
 B      3   1   2     1.615497459284   151.98559221   179.99805217
 B      4   3   1     1.548279472303   179.98527981   359.88180602
 B      5   4   3     1.606821582538   149.35438633   180.11710636
 B      5   4   3     1.606843630177   149.37229627     0.11756973
 B      7   5   4     1.606796506178   118.72822550   180.00025919
 B      8   7   5     1.548278921948   149.35037822   179.99982391
 B      9   8   7     1.615497786834   179.98870241   180.15886650
 B     10   9   8     1.596464927071   152.02269112   179.83586997
 B     11  10   9     1.498763963128    62.00266403   180.00199762

---------------------------
INTERNAL COORDINATES (A.U.)
---------------------------
 B      0   0   0     0.000000000000     0.00000000     0.00000000
 B      1   0   0     2.832253798297     0.00000000     0.00000000
 B      1   2   0     3.016735861235    62.00784730     0.00000000
 B      3   1   2     3.052847768092   151.98559221   179.99805217
 B      4   3   1     2.925824181424   179.98527981   359.88180602
 B      5   4   3     3.036452737070   149.35438633   180.11710636
 B      5   4   3     3.036494401071   149.37229627     0.11756973
 B      7   5   4     3.036405349617   118.72822550   180.00025919
 B      8   7   5     2.925823141404   149.35037822   179.99982391
 B      9   8   7     3.052848387072   179.98870241   180.15886650
 B     10   9   8     3.016881494575   152.02269112   179.83586997
 B     11  10   9     2.832253429702    62.00266403   180.00199762

---------------------
BASIS SET INFORMATION
---------------------
There are 1 groups of distinct atoms

 Group   1 Type B   : 11s6p1d contracted to 5s3p1d pattern {62111/411/1}

Atom   0B    basis set group =>   1
Atom   1B    basis set group =>   1
Atom   2B    basis set group =>   1
Atom   3B    basis set group =>   1
Atom   4B    basis set group =>   1
Atom   5B    basis set group =>   1
Atom   6B    basis set group =>   1
Atom   7B    basis set group =>   1
Atom   8B    basis set group =>   1
Atom   9B    basis set group =>   1
Atom  10B    basis set group =>   1
Atom  11B    basis set group =>   1
---------------------------------
AUXILIARY/J BASIS SET INFORMATION
---------------------------------
There are 1 groups of distinct atoms

 Group   1 Type B   : 8s3p3d contracted to 6s3p3d pattern {311111/111/111}

Atom   0B    basis set group =>   1
Atom   1B    basis set group =>   1
Atom   2B    basis set group =>   1
Atom   3B    basis set group =>   1
Atom   4B    basis set group =>   1
Atom   5B    basis set group =>   1
Atom   6B    basis set group =>   1
Atom   7B    basis set group =>   1
Atom   8B    basis set group =>   1
Atom   9B    basis set group =>   1
Atom  10B    basis set group =>   1
Atom  11B    basis set group =>   1


           ************************************************************
           *        Program running with 8 parallel MPI-processes     *
           *              working on a common directory               *
           ************************************************************
------------------------------------------------------------------------------
                             ORCA STARTUP CALCULATIONS
                           -- RI-GTO INTEGRALS CHOSEN --
------------------------------------------------------------------------------
------------------------------------------------------------------------------
                   ___                                                        
                  /   \      - P O W E R E D   B Y -                         
                 /     \                                                     
                 |  |  |   _    _      __       _____    __    __             
                 |  |  |  | |  | |    /  \     |  _  \  |  |  /  |          
                  \  \/   | |  | |   /    \    | | | |  |  | /  /          
                 / \  \   | |__| |  /  /\  \   | |_| |  |  |/  /          
                |  |  |   |  __  | /  /__\  \  |    /   |      \           
                |  |  |   | |  | | |   __   |  |    \   |  |\   \          
                \     /   | |  | | |  |  |  |  | |\  \  |  | \   \       
                 \___/    |_|  |_| |__|  |__|  |_| \__\ |__|  \__/        
                                                                              
                      - O R C A' S   B I G   F R I E N D -                    
                                      &                                       
                       - I N T E G R A L  F E E D E R -                       
                                                                              
 v1 FN, 2020, v2 2021, v3 2022-2024                                           
------------------------------------------------------------------------------


----------------------
SHARK INTEGRAL PACKAGE
----------------------

Number of atoms                             ...     12
Number of basis functions                   ...    228
Number of shells                            ...    108
Maximum angular momentum                    ...      2
Integral batch strategy                     ... SHARK/LIBINT Hybrid
RI-J (if used) integral strategy            ... SPLIT-RIJ (Revised 2003 algorithm where possible)
Printlevel                                  ...      1
Contraction scheme used                     ... SEGMENTED contraction
Prescreening option                         ... SCHWARTZ
   Thresh                                   ... 2.500e-11
   Tcut                                     ... 2.500e-12
   Tpresel                                  ... 2.500e-12 
Coulomb Range Separation                    ... NOT USED
Exchange Range Separation                   ... NOT USED
Multipole approximations                    ... NOT USED
Finite Nucleus Model                        ... NOT USED
CABS basis                                  ... NOT available
Auxiliary Coulomb fitting basis             ... AVAILABLE
   # of basis functions in Aux-J            ...    360
   # of shells in Aux-J                     ...    144
   Maximum angular momentum in Aux-J        ...      2
Auxiliary J/K fitting basis                 ... NOT available
Auxiliary Correlation fitting basis         ... NOT available
Auxiliary 'external' fitting basis          ... NOT available

Checking pre-screening integrals            ... done (  0.0 sec) Dimension = 108
   => SHARK Basis and OBASIS are compatible. Storing Pre-screening
Shell pair information
Shell pair cut-off parameter TPreSel        ...   2.5e-12
Total number of shell pairs                 ...      5886
Shell pairs after pre-screening             ...      4561
Total number of primitive shell pairs       ...     23700
Primitive shell pairs kept                  ...     12448
          la=0 lb=0:   1323 shell pairs
          la=1 lb=0:   1786 shell pairs
          la=1 lb=1:    598 shell pairs
          la=2 lb=0:    468 shell pairs
          la=2 lb=1:    338 shell pairs
          la=2 lb=2:     48 shell pairs

Checking whether 4 symmetric matrices of dimension 228 fit in memory
:Max Core in MB      =   2000.00
 MB in use           =      7.25
 MB left             =   1992.75
 MB needed           =      0.80
 Data fit in memory  = YES
Calculating RI/J V-Matrix + Cholesky decomp.... done (  0.0 sec)
Calculating Nuclear repulsion               ... done (  0.0 sec) ENN=    253.552000034872 Eh

Diagonalization of the overlap matrix:
Smallest eigenvalue                        ... 7.620e-06
Time for diagonalization                   ...    0.007 sec
Threshold for overlap eigenvalues          ... 1.000e-07
Number of eigenvalues below threshold      ... 0
Time for construction of square roots      ...    0.004 sec
Total time needed                          ...    0.012 sec

-------------------
DFT GRID GENERATION
-------------------

General Integration Accuracy     IntAcc      ... 4.388
Radial Grid Type                 RadialGrid  ... OptM3 with GC (2021)
Angular Grid (max. ang.)         AngularGrid ... 4 (Lebedev-302)
Angular grid pruning method      GridPruning ... 4 (adaptive)
Weight generation scheme         WeightScheme... mBecke (2022)
Basis function cutoff            BFCut       ... 1.0000e-11
Integration weight cutoff        WCut        ... 1.0000e-14
Partially contracted basis set               ... off
Rotationally invariant grid construction     ... off
Angular grids for H and He will be reduced by one unit

Total number of grid points                  ...    72398
Total number of batches                      ...     1138
Average number of points per batch           ...       63
Average number of grid points per atom       ...     6033
Grids setup in   0.7 sec
Initializing property integral containers    ... done (  0.0 sec)

SHARK setup successfully completed in   0.8 seconds

Maximum memory used throughout the entire STARTUP-calculation: 20.5 MB


           ************************************************************
           *        Program running with 8 parallel MPI-processes     *
           *              working on a common directory               *
           ************************************************************
-------------------------------------------------------------------------------
                                 ORCA GUESS
                   Start orbitals & Density for SCF / CASSCF
-------------------------------------------------------------------------------

------------
SCF SETTINGS
------------
Hamiltonian:
 Density Functional     Method          .... DFT(GTOs)
  Functional kind                       .... Exchange
  Functional name                       .... Re-regularized SCAN exchange by Furness et al
  Functional family                     .... MGGA
  Functional refs                              
    [ 0] J. W. Furness, A. D. Kaplan, J. Ning, J. P. Perdew, and J. Sun.,  J. Phys. Chem. Lett. 11, 8208-8215 (2020), doi: 10.1021/acs.jpclett.0c02405
    [ 1] J. W. Furness, A. D. Kaplan, J. Ning, J. P. Perdew, and J. Sun.,  J. Phys. Chem. Lett. 11, 9248-9248 (2020), doi: 10.1021/acs.jpclett.0c03077
  Functional external parameters        .... 6
    Parameter  0 _c1        =  6.670000e-01 : c1 parameter        
    Parameter  1 _c2        =  8.000000e-01 : c2 parameter        
    Parameter  2 _d         =  1.240000e+00 : d parameter         
    Parameter  3 _k1        =  6.500000e-02 : k1 parameter        
    Parameter  4 _eta       =  1.000000e-03 : eta parameter       
    Parameter  5 _dp2       =  3.610000e-01 : dp2 parameter       
  Functional kind                       .... Correlation
  Functional name                       .... Re-regularized SCAN correlation by Furness et al
  Functional family                     .... MGGA
  Functional refs                              
    [ 0] J. W. Furness, A. D. Kaplan, J. Ning, J. P. Perdew, and J. Sun.,  J. Phys. Chem. Lett. 11, 8208-8215 (2020), doi: 10.1021/acs.jpclett.0c02405
    [ 1] J. W. Furness, A. D. Kaplan, J. Ning, J. P. Perdew, and J. Sun.,  J. Phys. Chem. Lett. 11, 9248-9248 (2020), doi: 10.1021/acs.jpclett.0c03077
  Functional external parameters        .... 1
    Parameter  0 _eta       =  1.000000e-03 : Regularization parameter
 Gradients option       PostSCFGGA      .... off
 RI-approximation to the Coulomb term is turned on
   Number of AuxJ basis functions       .... 360


General Settings:
 Integral files         IntName         .... zigzag_chain12_d1.50_m3_r2scan_numfreq
 Hartree-Fock type      HFTyp           .... UHF
 Total Charge           Charge          ....    0
 Multiplicity           Mult            ....    3
 Number of Electrons    NEL             ....   60
 Basis Dimension        Dim             ....  228
 Nuclear Repulsion      ENuc            ....    253.5520000349 Eh

Convergence Acceleration:
 AO-DIIS                CNVDIIS         .... on
   Start iteration      DIISMaxIt       ....    12
   Startup error        DIISStart       ....  0.200000
   # of expansion vecs  DIISMaxEq       ....     5
   Bias factor          DIISBfac        ....   1.050
   Max. coefficient     DIISMaxC        ....  10.000
 MO-DIIS                CNVKDIIS        .... off
 Trust-Rad. Augm. Hess. CNVTRAH         .... auto
   Auto Start mean grad. ratio tolernc. ....  1.125000
   Auto Start start iteration           ....    50
   Auto Start num. interpolation iter.  ....    10
   Max. Number of Micro iterations      ....    24
   Max. Number of Macro iterations      .... Maxiter - #DIIS iter
   Number of Davidson start vectors     ....     2
   Converg. threshold    (grad. norm)   ....   1.000e-05
   Grad. Scal. Fac. for Micro threshold ....   0.100
   Minimum threshold for Micro iter.    ....   1.000e-02
   NR start threshold (gradient norm)   ....   1.000e-04
   Initial trust radius                 ....   0.400
   Minimum AH scaling param. (alpha)    ....   1.000
   Maximum AH scaling param. (alpha)    .... 1000.000
   Quad. conv. algorithm                .... NR
   White noise on init. David. guess    .... on
   Maximum white noise                  ....   0.010
   Pseudo random numbers                .... off
   Inactive MOs                         .... canonical
   Orbital update algorithm             .... Taylor
   Preconditioner                       .... Diag
   Full preconditioner red. dimension   ....   250
   COSX micro iterations for RIJONX calc.... off
 SOSCF                 CNVSOSCF           .... on
   Start iteration     SOSCFMaxIt         ....   150
   Startup grad/error  SOSCFStart         ....  0.003300
   Hessian update      SOSCFHessUp        .... L-BFGS
   Autom. constraints  SOSCFAutoConstrain .... off
 Level Shifting         CNVShift        .... on
   Level shift para.    LevelShift      ....    0.2500
   Turn off err/grad.   ShiftErr        ....    0.0010
 Zerner damping         CNVZerner       .... off
 Static damping         CNVDamp         .... on
   Fraction old density DampFac         ....    0.7000
   Max. Damping (<1)    DampMax         ....    0.9800
   Min. Damping (>=0)   DampMin         ....    0.0000
   Turn off err/grad.   DampErr         ....    0.1000

SCF Procedure:
 Maximum # iterations   MaxIter         ....   125
 SCF integral mode      SCFMode         .... Direct
   Integral package                     .... SHARK and LIBINT hybrid scheme
 Reset frequency        DirectResetFreq ....    20
 Integral Threshold     Thresh          ....  2.500e-11 Eh
 Primitive CutOff       TCut            ....  2.500e-12 Eh

Convergence Tolerance:
 Convergence Check Mode ConvCheckMode   .... Total+1el-Energy
 Convergence forced     ConvForced      .... 0
 Energy Change          TolE            ....  1.000e-08 Eh
 1-El. energy change                    ....  1.000e-05 Eh
 Orbital Gradient       TolG            ....  1.000e-05
 Orbital Rotation angle TolX            ....  1.000e-05
 DIIS Error             TolErr          ....  5.000e-07

------------------------------
INITIAL GUESS: MODEL POTENTIAL
------------------------------
Loading Hartree-Fock densities                     ... done
Calculating cut-offs                               ... done
Initializing the effective Hamiltonian             ... done
Setting up the integral package (SHARK)            ... done
Starting the Coulomb interaction                   ... done (   0.1 sec)
Making the grid                                    ... done (   0.1 sec)
Mapping shells                                     ... done
Starting the XC term evaluation                    ... done (   0.0 sec)
  promolecular density results
     # of electrons  =     59.999257473
     EX              =    -45.242869098
     EC              =     -1.741916116
     EX+EC           =    -46.984785214
Transforming the Hamiltonian                       ... done (   0.0 sec)
Diagonalizing the Hamiltonian                      ... done (   0.0 sec)
Back transforming the eigenvectors                 ... done (   0.0 sec)
Now organizing SCF variables                       ... done
                      ------------------
                      INITIAL GUESS DONE (   0.2 sec)
                      ------------------
             **** ENERGY FILE WAS UPDATED (zigzag_chain12_d1.50_m3_r2scan_numfreq.en.tmp) ****
Finished Guess after   0.6 sec
Maximum memory used throughout the entire GUESS-calculation: 10.5 MB


           ************************************************************
           *        Program running with 8 parallel MPI-processes     *
           *              working on a common directory               *
           ************************************************************

-------------------------------------------------------------------------------------------
                                      ORCA LEAN-SCF
                              memory conserving SCF solver
-------------------------------------------------------------------------------------------

----------------------------------------D-I-I-S--------------------------------------------
Iteration    Energy (Eh)           Delta-E    RMSDP     MaxDP     DIISErr   Damp  Time(sec)
-------------------------------------------------------------------------------------------
               ***  Starting incremental Fock matrix formation  ***
    1    -296.8366706370009069     0.00e+00  8.02e-03  8.47e-02  9.86e-02  0.700   0.7
Warning: op=0 Small HOMO/LUMO gap (  -0.053) - skipping pre-diagonalization
         Will do a full diagonalization
    2    -297.1350172126193456    -2.98e-01  6.94e-03  9.50e-02  5.68e-02  0.700   0.7
                               ***Turning on AO-DIIS***
    3    -297.2484023256221235    -1.13e-01  5.15e-03  7.92e-02  2.59e-02  0.700   0.6
    4    -297.3052350535846244    -5.68e-02  1.24e-02  2.06e-01  1.51e-02  0.000   0.7
    5    -297.4399884856933340    -1.35e-01  2.67e-03  2.22e-02  1.47e-02  0.000   0.7
    6    -297.4504200761631409    -1.04e-02  1.27e-03  1.30e-02  5.69e-03  0.000   0.7
                              *** Initializing SOSCF ***
---------------------------------------S-O-S-C-F--------------------------------------
Iteration    Energy (Eh)           Delta-E    RMSDP     MaxDP     MaxGrad    Time(sec)
--------------------------------------------------------------------------------------
    7    -297.4523616491512712    -1.94e-03  6.69e-04  6.03e-03  2.51e-03     0.7
               *** Restarting incremental Fock matrix formation ***
    8    -297.4528722509998033    -5.11e-04  6.52e-04  4.83e-03  2.61e-03     0.7
    9    -297.4530023635173848    -1.30e-04  5.64e-04  4.43e-03  3.14e-03     0.6
   10    -297.4532312534973926    -2.29e-04  4.55e-04  5.25e-03  9.83e-04     0.6
   11    -297.4532977871283492    -6.65e-05  4.48e-04  5.33e-03  7.80e-04     0.6
   12    -297.4533539749373858    -5.62e-05  8.67e-04  1.16e-02  1.08e-03     0.6
   13    -297.4534197043466293    -6.57e-05  3.06e-04  2.79e-03  7.51e-04     0.6
   14    -297.4534599810140207    -4.03e-05  3.17e-04  4.64e-03  6.71e-04     0.6
   15    -297.4534881548861449    -2.82e-05  2.25e-04  2.22e-03  4.07e-04     0.5
   16    -297.4535006311369898    -1.25e-05  2.25e-04  1.53e-03  4.01e-04     0.6
   17    -297.4535091700037128    -8.54e-06  2.14e-04  2.22e-03  3.00e-04     0.6
   18    -297.4535153948131665    -6.22e-06  1.43e-04  1.50e-03  4.89e-04     0.6
   19    -297.4535215493878013    -6.15e-06  9.37e-05  9.98e-04  1.74e-04     0.5
   20    -297.4535230933666980    -1.54e-06  5.33e-05  3.89e-04  7.50e-05     0.5
   21    -297.4535231764898526    -8.31e-08  2.26e-05  2.36e-04  1.03e-04     0.5
   22    -297.4535234778339827    -3.01e-07  1.91e-05  1.72e-04  2.34e-05     0.6
   23    -297.4535235165637914    -3.87e-08  5.22e-06  6.62e-05  1.08e-05     0.5
   24    -297.4535235220934055    -5.53e-09  7.62e-06  1.24e-04  6.35e-06     0.5
                 **** Energy Check signals convergence ****

               *****************************************************
               *                     SUCCESS                       *
               *           SCF CONVERGED AFTER  24 CYCLES          *
               *****************************************************

             **** ENERGY FILE WAS UPDATED (zigzag_chain12_d1.50_m3_r2scan_numfreq.en.tmp) ****

----------------
TOTAL SCF ENERGY
----------------

Total Energy       :       -297.45352352205248 Eh           -8094.12187 eV

Components:
Nuclear Repulsion  :        253.55200003487207 Eh            6899.50068 eV
Electronic Energy  :       -551.00552355692457 Eh          -14993.62256 eV
One Electron Energy:       -896.82509791682946 Eh          -24403.85158 eV
Two Electron Energy:        345.81957435990489 Eh            9410.22903 eV

Virial components:
Potential Energy   :       -593.57379954062048 Eh          -16151.96424 eV
Kinetic Energy     :        296.12027601856795 Eh            8057.84236 eV
Virial Ratio       :          2.00450238504911

DFT components:
N(Alpha)           :       31.000000118206 electrons
N(Beta)            :       29.000000152043 electrons
N(Total)           :       60.000000270249 electrons
E(X)               :      -46.422880174623 Eh       
E(C)               :       -1.757513776858 Eh       
E(XC)              :      -48.180393951481 Eh       

---------------
SCF CONVERGENCE
---------------

  Last Energy change         ...    5.5296e-09  Tolerance :   1.0000e-08
  Last MAX-Density change    ...    1.2412e-04  Tolerance :   1.0000e-07
  Last RMS-Density change    ...    7.6203e-06  Tolerance :   5.0000e-09
  Last DIIS Error            ...    2.5065e-03  Tolerance :   5.0000e-07
  Last Orbital Gradient      ...    6.3492e-06  Tolerance :   1.0000e-05
  Last Orbital Rotation      ...    8.2744e-05  Tolerance :   1.0000e-05


----------------------
UHF SPIN CONTAMINATION
----------------------

Warning: in a DFT calculation there is little theoretical justification to 
         calculate <S**2> as in Hartree-Fock theory. We will do it anyways
         but you should keep in mind that the values have only limited relevance

Expectation value of <S**2>     :     2.121394
Ideal value S*(S+1) for S=1.0   :     2.000000
Deviation                       :     0.121394

----------------
ORBITAL ENERGIES
----------------
                 SPIN UP ORBITALS
  NO   OCC          E(Eh)            E(eV) 
   0   1.0000      -6.697043      -182.2358 
   1   1.0000      -6.697042      -182.2358 
   2   1.0000      -6.695758      -182.2008 
   3   1.0000      -6.695757      -182.2008 
   4   1.0000      -6.685182      -181.9131 
   5   1.0000      -6.685179      -181.9130 
   6   1.0000      -6.658691      -181.1922 
   7   1.0000      -6.658171      -181.1780 
   8   1.0000      -6.640455      -180.6960 
   9   1.0000      -6.640451      -180.6958 
  10   1.0000      -6.607665      -179.8037 
  11   1.0000      -6.607657      -179.8035 
  12   1.0000      -0.637843       -17.3566 
  13   1.0000      -0.615531       -16.7494 
  14   1.0000      -0.615325       -16.7439 
  15   1.0000      -0.514557       -14.0018 
  16   1.0000      -0.492613       -13.4047 
  17   1.0000      -0.433964       -11.8088 
  18   1.0000      -0.387264       -10.5380 
  19   1.0000      -0.340223        -9.2579 
  20   1.0000      -0.332954        -9.0601 
  21   1.0000      -0.328020        -8.9259 
  22   1.0000      -0.325798        -8.8654 
  23   1.0000      -0.287468        -7.8224 
  24   1.0000      -0.282335        -7.6827 
  25   1.0000      -0.279679        -7.6105 
  26   1.0000      -0.272278        -7.4091 
  27   1.0000      -0.262358        -7.1391 
  28   1.0000      -0.246309        -6.7024 
  29   1.0000      -0.204270        -5.5585 
  30   1.0000      -0.204057        -5.5527 
  31   0.0000      -0.198454        -5.4002 
  32   0.0000      -0.197154        -5.3648 
  33   0.0000      -0.175948        -4.7878 
  34   0.0000      -0.159699        -4.3456 
  35   0.0000      -0.158171        -4.3041 
  36   0.0000      -0.092470        -2.5162 
  37   0.0000      -0.059417        -1.6168 
  38   0.0000      -0.056621        -1.5407 
  39   0.0000      -0.024316        -0.6617 
  40   0.0000      -0.017529        -0.4770 
  41   0.0000      -0.017409        -0.4737 

                 SPIN DOWN ORBITALS
  NO   OCC          E(Eh)            E(eV) 
   0   1.0000      -6.694650      -182.1707 
   1   1.0000      -6.694649      -182.1707 
   2   1.0000      -6.693366      -182.1358 
   3   1.0000      -6.693366      -182.1357 
   4   1.0000      -6.681375      -181.8095 
   5   1.0000      -6.681372      -181.8094 
   6   1.0000      -6.653161      -181.0417 
   7   1.0000      -6.652666      -181.0283 
   8   1.0000      -6.642286      -180.7458 
   9   1.0000      -6.642281      -180.7457 
  10   1.0000      -6.606458      -179.7709 
  11   1.0000      -6.606450      -179.7706 
  12   1.0000      -0.627785       -17.0829 
  13   1.0000      -0.615766       -16.7558 
  14   1.0000      -0.615538       -16.7496 
  15   1.0000      -0.499618       -13.5953 
  16   1.0000      -0.478882       -13.0311 
  17   1.0000      -0.430199       -11.7063 
  18   1.0000      -0.383789       -10.4434 
  19   1.0000      -0.327967        -8.9244 
  20   1.0000      -0.323026        -8.7900 
  21   1.0000      -0.320917        -8.7326 
  22   1.0000      -0.304733        -8.2922 
  23   1.0000      -0.278036        -7.5657 
  24   1.0000      -0.275258        -7.4901 
  25   1.0000      -0.274178        -7.4608 
  26   1.0000      -0.264483        -7.1970 
  27   1.0000      -0.258489        -7.0338 
  28   1.0000      -0.244098        -6.6422 
  29   0.0000      -0.175249        -4.7688 
  30   0.0000      -0.174932        -4.7601 
  31   0.0000      -0.164124        -4.4660 
  32   0.0000      -0.160985        -4.3806 
  33   0.0000      -0.146202        -3.9784 
  34   0.0000      -0.127055        -3.4573 
  35   0.0000      -0.125181        -3.4063 
  36   0.0000      -0.080327        -2.1858 
  37   0.0000      -0.051793        -1.4094 
  38   0.0000      -0.043560        -1.1853 
  39   0.0000      -0.011845        -0.3223 
*Only the first 10 virtual orbitals were printed.

                    ********************************
                    * MULLIKEN POPULATION ANALYSIS *
                    ********************************

--------------------------------------------
MULLIKEN ATOMIC CHARGES AND SPIN POPULATIONS
--------------------------------------------
   0 B :    0.038601    0.155031
   1 B :    0.038689    0.155737
   2 B :   -0.312172   -0.233627
   3 B :    0.183090    0.504657
   4 B :    0.006657    0.191159
   5 B :    0.045160    0.227195
   6 B :    0.045107    0.226884
   7 B :    0.006712    0.191177
   8 B :    0.183047    0.504701
   9 B :   -0.312174   -0.233677
  10 B :    0.038728    0.155163
  11 B :    0.038555    0.155599
Sum of atomic charges         :    0.0000000
Sum of atomic spin populations:    2.0000000

-----------------------------------------------------
MULLIKEN REDUCED ORBITAL CHARGES AND SPIN POPULATIONS
-----------------------------------------------------
CHARGE
  0 B s       :     3.261868  s :     3.261868
      pz      :     0.610463  p :     1.674503
      px      :     0.679861
      py      :     0.384179
      dz2     :     0.002113  d :     0.025029
      dxz     :     0.002000
      dyz     :     0.005722
      dx2y2   :     0.005763
      dxy     :     0.009432

  1 B s       :     3.261858  s :     3.261858
      pz      :     0.610416  p :     1.674426
      px      :     0.676957
      py      :     0.387054
      dz2     :     0.002113  d :     0.025026
      dxz     :     0.002147
      dyz     :     0.005574
      dx2y2   :     0.005878
      dxy     :     0.009315

  2 B s       :     3.112563  s :     3.112563
      pz      :     0.714699  p :     2.179808
      px      :     0.832934
      py      :     0.632175
      dz2     :     0.003102  d :     0.019801
      dxz     :     0.005675
      dyz     :     0.000001
      dx2y2   :     0.005805
      dxy     :     0.005219

  3 B s       :     3.319257  s :     3.319257
      pz      :     0.426944  p :     1.484197
      px      :     0.782641
      py      :     0.274612
      dz2     :     0.001964  d :     0.013456
      dxz     :     0.002640
      dyz     :     0.000000
      dx2y2   :     0.005494
      dxy     :     0.003357

  4 B s       :     2.946762  s :     2.946762
      pz      :     0.611425  p :     2.029319
      px      :     0.584938
      py      :     0.832956
      dz2     :     0.003121  d :     0.017262
      dxz     :     0.003808
      dyz     :     0.000000
      dx2y2   :     0.007529
      dxy     :     0.002804

  5 B s       :     3.147998  s :     3.147998
      pz      :     0.490444  p :     1.775590
      px      :     0.761193
      py      :     0.523953
      dz2     :     0.003168  d :     0.031252
      dxz     :     0.001468
      dyz     :     0.006544
      dx2y2   :     0.007135
      dxy     :     0.012938

  6 B s       :     3.147984  s :     3.147984
      pz      :     0.490502  p :     1.775656
      px      :     0.761238
      py      :     0.523916
      dz2     :     0.003168  d :     0.031253
      dxz     :     0.001468
      dyz     :     0.006544
      dx2y2   :     0.007136
      dxy     :     0.012938

  7 B s       :     2.946730  s :     2.946730
      pz      :     0.611425  p :     2.029296
      px      :     0.584917
      py      :     0.832954
      dz2     :     0.003121  d :     0.017262
      dxz     :     0.003808
      dyz     :     0.000000
      dx2y2   :     0.007529
      dxy     :     0.002804

  8 B s       :     3.319278  s :     3.319278
      pz      :     0.426945  p :     1.484219
      px      :     0.782663
      py      :     0.274611
      dz2     :     0.001964  d :     0.013456
      dxz     :     0.002640
      dyz     :     0.000000
      dx2y2   :     0.005494
      dxy     :     0.003357

  9 B s       :     3.112567  s :     3.112567
      pz      :     0.714698  p :     2.179807
      px      :     0.832935
      py      :     0.632173
      dz2     :     0.003102  d :     0.019801
      dxz     :     0.005675
      dyz     :     0.000001
      dx2y2   :     0.005805
      dxy     :     0.005219

 10 B s       :     3.261841  s :     3.261841
      pz      :     0.610416  p :     1.674404
      px      :     0.676989
      py      :     0.386999
      dz2     :     0.002113  d :     0.025027
      dxz     :     0.002145
      dyz     :     0.005576
      dx2y2   :     0.005877
      dxy     :     0.009316

 11 B s       :     3.261890  s :     3.261890
      pz      :     0.610465  p :     1.674527
      px      :     0.679831
      py      :     0.384231
      dz2     :     0.002113  d :     0.025028
      dxz     :     0.002001
      dyz     :     0.005720
      dx2y2   :     0.005763
      dxy     :     0.009431


SPIN
  0 B s       :     0.061049  s :     0.061049
      pz      :     0.050568  p :     0.095808
      px      :    -0.021158
      py      :     0.066398
      dz2     :    -0.000089  d :    -0.001826
      dxz     :    -0.000190
      dyz     :    -0.000122
      dx2y2   :    -0.000787
      dxy     :    -0.000638

  1 B s       :     0.061277  s :     0.061277
      pz      :     0.050672  p :     0.096289
      px      :    -0.018984
      py      :     0.064602
      dz2     :    -0.000089  d :    -0.001830
      dxz     :    -0.000202
      dyz     :    -0.000112
      dx2y2   :    -0.000809
      dxy     :    -0.000618

  2 B s       :    -0.041483  s :    -0.041483
      pz      :    -0.046665  p :    -0.194744
      px      :    -0.044092
      py      :    -0.103987
      dz2     :    -0.000082  d :     0.002600
      dxz     :     0.002177
      dyz     :     0.000000
      dx2y2   :     0.000686
      dxy     :    -0.000181

  3 B s       :     0.204806  s :     0.204806
      pz      :     0.314290  p :     0.301138
      px      :    -0.000261
      py      :    -0.012892
      dz2     :    -0.001424  d :    -0.001286
      dxz     :     0.000405
      dyz     :     0.000000
      dx2y2   :     0.000178
      dxy     :    -0.000445

  4 B s       :     0.204102  s :     0.204102
      pz      :     0.163849  p :    -0.015339
      px      :    -0.109173
      py      :    -0.070016
      dz2     :    -0.001012  d :     0.002396
      dxz     :     0.000105
      dyz     :     0.000000
      dx2y2   :     0.003070
      dxy     :     0.000234

  5 B s       :     0.014039  s :     0.014039
      pz      :    -0.034599  p :     0.214534
      px      :    -0.032264
      py      :     0.281397
      dz2     :     0.001016  d :    -0.001377
      dxz     :     0.001409
      dyz     :    -0.001573
      dx2y2   :    -0.001386
      dxy     :    -0.000844

  6 B s       :     0.013874  s :     0.013874
      pz      :    -0.034629  p :     0.214386
      px      :    -0.032320
      py      :     0.281334
      dz2     :     0.001016  d :    -0.001376
      dxz     :     0.001410
      dyz     :    -0.001572
      dx2y2   :    -0.001386
      dxy     :    -0.000843

  7 B s       :     0.204139  s :     0.204139
      pz      :     0.163849  p :    -0.015358
      px      :    -0.109192
      py      :    -0.070015
      dz2     :    -0.001012  d :     0.002396
      dxz     :     0.000105
      dyz     :     0.000000
      dx2y2   :     0.003069
      dxy     :     0.000234

  8 B s       :     0.204835  s :     0.204835
      pz      :     0.314292  p :     0.301153
      px      :    -0.000246
      py      :    -0.012893
      dz2     :    -0.001424  d :    -0.001286
      dxz     :     0.000405
      dyz     :     0.000000
      dx2y2   :     0.000178
      dxy     :    -0.000445

  9 B s       :    -0.041527  s :    -0.041527
      pz      :    -0.046664  p :    -0.194749
      px      :    -0.044099
      py      :    -0.103986
      dz2     :    -0.000082  d :     0.002600
      dxz     :     0.002177
      dyz     :     0.000000
      dx2y2   :     0.000686
      dxy     :    -0.000181

 10 B s       :     0.061080  s :     0.061080
      pz      :     0.050600  p :     0.095910
      px      :    -0.019142
      py      :     0.064452
      dz2     :    -0.000089  d :    -0.001827
      dxz     :    -0.000202
      dyz     :    -0.000110
      dx2y2   :    -0.000809
      dxy     :    -0.000616

 11 B s       :     0.061243  s :     0.061243
      pz      :     0.050639  p :     0.096186
      px      :    -0.020999
      py      :     0.066546
      dz2     :    -0.000088  d :    -0.001829
      dxz     :    -0.000191
      dyz     :    -0.000123
      dx2y2   :    -0.000787
      dxy     :    -0.000640



                     *******************************
                     * LOEWDIN POPULATION ANALYSIS *
                     *******************************

-------------------------------------------
LOEWDIN ATOMIC CHARGES AND SPIN POPULATIONS
-------------------------------------------
   0 B :    0.078029    0.150709
   1 B :    0.078060    0.151324
   2 B :   -0.221242   -0.099734
   3 B :    0.254059    0.286226
   4 B :   -0.260764    0.164980
   5 B :    0.071883    0.346588
   6 B :    0.071834    0.346402
   7 B :   -0.260765    0.164980
   8 B :    0.254058    0.286228
   9 B :   -0.221240   -0.099733
  10 B :    0.078069    0.150825
  11 B :    0.078020    0.151205

----------------------------------------------------
LOEWDIN REDUCED ORBITAL CHARGES AND SPIN POPULATIONS
----------------------------------------------------
CHARGE
  0 B s       :     2.925110  s :     2.925110
      pz      :     0.618722  p :     1.950225
      px      :     0.785909
      py      :     0.545594
      dz2     :     0.005369  d :     0.046636
      dxz     :     0.002576
      dyz     :     0.007887
      dx2y2   :     0.012840
      dxy     :     0.017964

  1 B s       :     2.925135  s :     2.925135
      pz      :     0.618679  p :     1.950173
      px      :     0.783816
      py      :     0.547677
      dz2     :     0.005369  d :     0.046632
      dxz     :     0.002770
      dyz     :     0.007692
      dx2y2   :     0.013090
      dxy     :     0.017710

  2 B s       :     2.772663  s :     2.772663
      pz      :     0.670603  p :     2.408145
      px      :     1.034528
      py      :     0.703015
      dz2     :     0.006258  d :     0.040433
      dxz     :     0.009013
      dyz     :     0.000001
      dx2y2   :     0.012351
      dxy     :     0.012810

  3 B s       :     2.888364  s :     2.888364
      pz      :     0.459411  p :     1.835681
      px      :     1.075190
      py      :     0.301081
      dz2     :     0.003187  d :     0.021896
      dxz     :     0.004343
      dyz     :     0.000000
      dx2y2   :     0.008974
      dxy     :     0.005392

  4 B s       :     2.738835  s :     2.738835
      pz      :     0.561134  p :     2.485662
      px      :     1.026390
      py      :     0.898139
      dz2     :     0.006072  d :     0.036266
      dxz     :     0.006270
      dyz     :     0.000001
      dx2y2   :     0.016085
      dxy     :     0.007838

  5 B s       :     2.781269  s :     2.781269
      pz      :     0.520462  p :     2.089664
      px      :     0.897826
      py      :     0.671376
      dz2     :     0.006468  d :     0.057185
      dxz     :     0.002511
      dyz     :     0.007900
      dx2y2   :     0.013387
      dxy     :     0.026920

  6 B s       :     2.781261  s :     2.781261
      pz      :     0.520512  p :     2.089719
      px      :     0.897854
      py      :     0.671353
      dz2     :     0.006468  d :     0.057186
      dxz     :     0.002511
      dyz     :     0.007899
      dx2y2   :     0.013388
      dxy     :     0.026921

  7 B s       :     2.738836  s :     2.738836
      pz      :     0.561134  p :     2.485663
      px      :     1.026390
      py      :     0.898139
      dz2     :     0.006072  d :     0.036266
      dxz     :     0.006270
      dyz     :     0.000001
      dx2y2   :     0.016085
      dxy     :     0.007838

  8 B s       :     2.888364  s :     2.888364
      pz      :     0.459411  p :     1.835682
      px      :     1.075192
      py      :     0.301079
      dz2     :     0.003187  d :     0.021896
      dxz     :     0.004343
      dyz     :     0.000000
      dx2y2   :     0.008974
      dxy     :     0.005391

  9 B s       :     2.772663  s :     2.772663
      pz      :     0.670602  p :     2.408144
      px      :     1.034529
      py      :     0.703013
      dz2     :     0.006258  d :     0.040433
      dxz     :     0.009013
      dyz     :     0.000001
      dx2y2   :     0.012351
      dxy     :     0.012810

 10 B s       :     2.925132  s :     2.925132
      pz      :     0.618682  p :     1.950165
      px      :     0.783849
      py      :     0.547634
      dz2     :     0.005369  d :     0.046634
      dxz     :     0.002768
      dyz     :     0.007694
      dx2y2   :     0.013089
      dxy     :     0.017713

 11 B s       :     2.925113  s :     2.925113
      pz      :     0.618721  p :     1.950234
      px      :     0.785878
      py      :     0.545635
      dz2     :     0.005369  d :     0.046634
      dxz     :     0.002577
      dyz     :     0.007885
      dx2y2   :     0.012841
      dxy     :     0.017961


SPIN
  0 B s       :     0.057124  s :     0.057124
      pz      :     0.046535  p :     0.096427
      px      :    -0.024091
      py      :     0.073983
      dz2     :    -0.000066  d :    -0.002842
      dxz     :    -0.000312
      dyz     :    -0.000014
      dx2y2   :    -0.001399
      dxy     :    -0.001052

  1 B s       :     0.057274  s :     0.057274
      pz      :     0.046622  p :     0.096897
      px      :    -0.021568
      py      :     0.071843
      dz2     :    -0.000066  d :    -0.002847
      dxz     :    -0.000329
      dyz     :     0.000001
      dx2y2   :    -0.001430
      dxy     :    -0.001023

  2 B s       :    -0.002827  s :    -0.002827
      pz      :    -0.028307  p :    -0.101743
      px      :    -0.004229
      py      :    -0.069207
      dz2     :     0.000084  d :     0.004836
      dxz     :     0.003940
      dyz     :     0.000000
      dx2y2   :     0.001141
      dxy     :    -0.000330

  3 B s       :     0.020392  s :     0.020392
      pz      :     0.290213  p :     0.267797
      px      :    -0.003546
      py      :    -0.018869
      dz2     :    -0.001330  d :    -0.001963
      dxz     :     0.000719
      dyz     :     0.000000
      dx2y2   :    -0.000412
      dxy     :    -0.000940

  4 B s       :     0.014790  s :     0.014790
      pz      :     0.181874  p :     0.143903
      px      :     0.012569
      py      :    -0.050540
      dz2     :    -0.000812  d :     0.006287
      dxz     :     0.000534
      dyz     :     0.000000
      dx2y2   :     0.005998
      dxy     :     0.000566

  5 B s       :     0.096336  s :     0.096336
      pz      :    -0.042513  p :     0.252003
      px      :     0.005896
      py      :     0.288621
      dz2     :     0.001046  d :    -0.001751
      dxz     :     0.002427
      dyz     :    -0.001380
      dx2y2   :    -0.002755
      dxy     :    -0.001089

  6 B s       :     0.096274  s :     0.096274
      pz      :    -0.042537  p :     0.251877
      px      :     0.005879
      py      :     0.288535
      dz2     :     0.001045  d :    -0.001750
      dxz     :     0.002427
      dyz     :    -0.001379
      dx2y2   :    -0.002755
      dxy     :    -0.001088

  7 B s       :     0.014790  s :     0.014790
      pz      :     0.181874  p :     0.143903
      px      :     0.012569
      py      :    -0.050540
      dz2     :    -0.000812  d :     0.006287
      dxz     :     0.000534
      dyz     :     0.000000
      dx2y2   :     0.005998
      dxy     :     0.000566

  8 B s       :     0.020393  s :     0.020393
      pz      :     0.290214  p :     0.267798
      px      :    -0.003546
      py      :    -0.018870
      dz2     :    -0.001330  d :    -0.001963
      dxz     :     0.000719
      dyz     :     0.000000
      dx2y2   :    -0.000412
      dxy     :    -0.000940

  9 B s       :    -0.002827  s :    -0.002827
      pz      :    -0.028307  p :    -0.101741
      px      :    -0.004230
      py      :    -0.069205
      dz2     :     0.000084  d :     0.004836
      dxz     :     0.003940
      dyz     :     0.000000
      dx2y2   :     0.001141
      dxy     :    -0.000330

 10 B s       :     0.057148  s :     0.057148
      pz      :     0.046562  p :     0.096520
      px      :    -0.021720
      py      :     0.071677
      dz2     :    -0.000066  d :    -0.002843
      dxz     :    -0.000329
      dyz     :     0.000003
      dx2y2   :    -0.001430
      dxy     :    -0.001020

 11 B s       :     0.057248  s :     0.057248
      pz      :     0.046594  p :     0.096803
      px      :    -0.023938
      py      :     0.074148
      dz2     :    -0.000066  d :    -0.002846
      dxz     :    -0.000312
      dyz     :    -0.000016
      dx2y2   :    -0.001398
      dxy     :    -0.001054



                      *****************************
                      * MAYER POPULATION ANALYSIS *
                      *****************************

  NA   - Mulliken gross atomic population
  ZA   - Total nuclear charge
  QA   - Mulliken gross atomic charge
  VA   - Mayer's total valence
  BVA  - Mayer's bonded valence
  FA   - Mayer's free valence

  ATOM       NA         ZA         QA         VA         BVA        FA
  0 B      4.9614     5.0000     0.0386     3.3371     3.2962     0.0410
  1 B      4.9613     5.0000     0.0387     3.3370     3.2959     0.0411
  2 B      5.3122     5.0000    -0.3122     3.6016     3.5922     0.0094
  3 B      4.8169     5.0000     0.1831     3.1991     3.0647     0.1345
  4 B      4.9933     5.0000     0.0067     3.2461     3.2058     0.0403
  5 B      4.9548     5.0000     0.0452     3.5590     3.2890     0.2700
  6 B      4.9549     5.0000     0.0451     3.5590     3.2891     0.2698
  7 B      4.9933     5.0000     0.0067     3.2461     3.2058     0.0403
  8 B      4.8170     5.0000     0.1830     3.1991     3.0646     0.1345
  9 B      5.3122     5.0000    -0.3122     3.6016     3.5922     0.0094
 10 B      4.9613     5.0000     0.0387     3.3370     3.2960     0.0410
 11 B      4.9614     5.0000     0.0386     3.3372     3.2961     0.0411

  Mayer bond orders larger than 0.100000
B(  0-B ,  1-B ) :   1.7497 B(  0-B ,  2-B ) :   1.2401 B(  0-B ,  3-B ) :   0.1216 
B(  1-B ,  2-B ) :   1.2398 B(  1-B ,  3-B ) :   0.1215 B(  2-B ,  3-B ) :   1.3313 
B(  2-B ,  4-B ) :  -0.2271 B(  3-B ,  4-B ) :   1.0969 B(  3-B ,  8-B ) :   0.1764 
B(  4-B ,  5-B ) :   1.0436 B(  4-B ,  6-B ) :   1.0438 B(  4-B ,  7-B ) :   0.2250 
B(  5-B ,  6-B ) :   0.7590 B(  5-B ,  7-B ) :   1.0437 B(  6-B ,  7-B ) :   1.0437 
B(  7-B ,  8-B ) :   1.0969 B(  7-B ,  9-B ) :  -0.2271 B(  8-B ,  9-B ) :   1.3314 
B(  8-B , 10-B ) :   0.1215 B(  8-B , 11-B ) :   0.1216 B(  9-B , 10-B ) :   1.2399 
B(  9-B , 11-B ) :   1.2399 B( 10-B , 11-B ) :   1.7497 

-------
TIMINGS
-------

Total SCF time: 0 days 0 hours 0 min 15 sec 

Total time                  ....      15.594 sec
Sum of individual times     ....      14.984 sec  ( 96.1%)

SCF preparation             ....       0.410 sec  (  2.6%)
Fock matrix formation       ....      12.766 sec  ( 81.9%)
  Startup                   ....       0.028 sec  (  0.2% of F)
  Split-RI-J                ....       1.464 sec  ( 11.5% of F)
  XC integration            ....      11.150 sec  ( 87.3% of F)
    XC Preparation          ....       0.000 sec  (  0.0% of XC)
    Basis function eval.    ....       1.086 sec  (  9.7% of XC)
    Density eval.           ....       3.244 sec  ( 29.1% of XC)
    XC-Functional eval.     ....       0.685 sec  (  6.1% of XC)
    XC-Potential eval.      ....       3.950 sec  ( 35.4% of XC)
Diagonalization             ....       0.000 sec  (  0.0%)
Density matrix formation    ....       0.266 sec  (  1.7%)
Total Energy calculation    ....       0.117 sec  (  0.8%)
Population analysis         ....       0.071 sec  (  0.5%)
Orbital Transformation      ....       0.096 sec  (  0.6%)
Orbital Orthonormalization  ....       0.000 sec  (  0.0%)
DIIS solution               ....       0.429 sec  (  2.8%)
SOSCF solution              ....       0.828 sec  (  5.3%)
Finished LeanSCF after  15.6 sec

Maximum memory used throughout the entire LEANSCF-calculation: 11.9 MB


-------------------------------------------------------------------------------
                          DFT DISPERSION CORRECTION                            
                                                                               
                                DFTD4 V3.4.0                                   
-------------------------------------------------------------------------------
The R2SCAN3C composite method is recognized
Using three-body term ABC
Active option DFTDOPT                   ...         5   

-------------------------   ----------------
Dispersion correction           -0.004044966
-------------------------   ----------------

------------------   -----------------
gCP correction             0.005885998
------------------   -----------------

-------------------------   --------------------
FINAL SINGLE POINT ENERGY      -297.451682490386
-------------------------   --------------------



           ************************************************************
           *        Program running with 8 parallel MPI-processes     *
           *              working on a common directory               *
           ************************************************************
------------------------------------------------------------------------------
                         ORCA SCF GRADIENT CALCULATION
------------------------------------------------------------------------------

Nuc. rep. gradient        (SHARK) ... done (  0.0 sec)
HCore & Overlap gradient  (SHARK) ... done (  0.1 sec)
Split-RIJ-J gradient      (SHARK) ... done (  0.3 sec)
XC gradient                       ... done (  1.2 sec)
Dispersion correction             ... done (  0.1 sec)

-------------------
DISPERSION GRADIENT
-------------------

   1   B   :   -0.000055830    0.000011171   -0.000000001
   2   B   :   -0.000056044   -0.000009972   -0.000000000
   3   B   :   -0.000056478    0.000000593   -0.000000000
   4   B   :   -0.000029981    0.000000301    0.000000000
   5   B   :    0.000014090   -0.000000158    0.000000000
   6   B   :   -0.000000205   -0.000019300    0.000000001
   7   B   :    0.000000205    0.000019291   -0.000000001
   8   B   :   -0.000014091    0.000000148    0.000000000
   9   B   :    0.000029981   -0.000000304    0.000000000
  10   B   :    0.000056478   -0.000000588   -0.000000000
  11   B   :    0.000056044    0.000009980   -0.000000002
  12   B   :    0.000055830   -0.000011163    0.000000001

Difference to translation invariance:
           :   -0.0000000000   -0.0000000000   -0.0000000000

Difference to rotation invariance:
           :   -0.0000000000    0.0000000000    0.0000000000

Norm of the Dispersion gradient    ...    0.0001492793
RMS gradient                       ...    0.0000248799
MAX gradient                       ...    0.0000564780
gCP correction                   ... done

------------------
CARTESIAN GRADIENT
------------------

   1   B   :   -0.000006055   -0.000001321   -0.000000195
   2   B   :   -0.000000207   -0.000009914    0.000000374
   3   B   :    0.000047367    0.000009218   -0.000000127
   4   B   :   -0.000050554   -0.000004422   -0.000000253
   5   B   :    0.000011425   -0.000003340    0.000000136
   6   B   :    0.000002436    0.000011275    0.000000085
   7   B   :   -0.000002729   -0.000011101    0.000000044
   8   B   :   -0.000011012    0.000004061    0.000000123
   9   B   :    0.000050350    0.000003883   -0.000000239
  10   B   :   -0.000047376   -0.000008007   -0.000000128
  11   B   :   -0.000001301    0.000009261    0.000000463
  12   B   :    0.000007656    0.000000409   -0.000000284

Difference to translation invariance:
           :   -0.0000000000    0.0000000000    0.0000000000

Difference to rotation invariance:
           :    0.0000001890   -0.0000000292    0.0001796775

Norm of the Cartesian gradient     ...    0.0001029052
RMS gradient                       ...    0.0000171509
MAX gradient                       ...    0.0000505543

-------
TIMINGS
-------

Total SCF gradient time     ....        1.577 sec

Densities                   ....       0.001 sec  (  0.1%)
One electron gradient       ....       0.058 sec  (  3.7%)
RI-J Coulomb gradient       ....       0.253 sec  ( 16.0%)
XC gradient                 ....       1.183 sec  ( 75.0%)

Maximum memory used throughout the entire SCFGRAD-calculation: 31.2 MB


           ************************************************************
           *        Program running with 8 parallel MPI-processes     *
           *              working on a common directory               *
           ************************************************************

------------------------------------------------------------------------------
                              ORCA PROPERTY CALCULATIONS
------------------------------------------------------------------------------

GBWName                                 ... zigzag_chain12_d1.50_m3_r2scan_numfreq.gbw
Number of atoms                         ...     12
Number of basis functions               ...    228
Max core memory                         ...   2000 MB

Electric properties:
Dipole moment                           ... YES
Quadrupole moment                       ...  NO
Static polarizability (Dipole/Dipole)   ...  NO
Static polarizability (Dipole/Quad.)    ...  NO
Static polarizability (Quad./Quad.)     ...  NO
Static polarizability (Velocity)        ...  NO
Static hyperpolarizability              ...  NO

Atomic electric properties:
Dipole moment                           ...  NO
Quadrupole moment                       ...  NO
Static polarizability                   ...  NO

Choice of electric origin               ... Center of mass
Position of electric origin             ...    -0.000000     0.000000    -0.000000

General magnetic properties:
Magnetizability                         ...  NO

EPR properties:
g-Tensor (aka g-matrix)                 ...  NO
Zero-Field splitting spin-orbit         ...  NO
Zero-field splitting spin-spin          ...  NO
Hyperfine couplings                     ...  NO (   0 nuclei)
Quadrupole couplings                    ...  NO (   0 nuclei)
Contact density                         ...  NO (   0 nuclei)

NMR properties:
Chemical shifts                         ...  NO (   0 nuclei)
Spin-rotation constants                 ...  NO (   0 nuclei)
Spin-spin couplings                     ...  NO (   0 nuclei,    0 pairs)

Choice of magnetic origin               ... GIAO
Position of magnetic origin             ...     0.000000     0.000000     0.000000

Properties with geometric perturbations:
SCF Hessian                             ...  NO
IR spectrum                             ...  NO
VCD spectrum                            ...  NO
X-ray spectroscopy properties:
SCF XES/XAS/RIXS spectra                ...  NO

SCF SOC stabilization energy            ...  NO
Diagonal Born-Oppenheimer correction    ...  NO

-------------
DIPOLE MOMENT
-------------

Method             : SCF
Type of density    : Electron Density
Multiplicity       :   3
Irrep              :   0
Energy             :  -297.4535235220524783 Eh
Basis              : AO
                                X                 Y                 Z
Electronic contribution:     -0.000005795      -0.000031895      -0.000035544
Nuclear contribution   :      0.000000000       0.000000000       0.000000000
                        -----------------------------------------
Total Dipole Moment    :     -0.000005795      -0.000031895      -0.000035544
                        -----------------------------------------
Magnitude (a.u.)       :      0.000048107
Magnitude (Debye)      :      0.000122278



--------------------
Rotational spectrum 
--------------------
 
Rotational constants in cm-1:             0.434719             0.007636             0.007504 
Rotational constants in MHz :         13032.542038           228.909522           224.958252 

Dipole components along the rotational axes: 
x,y,z [a.u.] :    -0.000005    -0.000032    -0.000036 
x,y,z [Debye]:    -0.000014    -0.000081    -0.000090 

 

Dipole moment calculation done in   0.0 sec 

Maximum memory used throughout the entire PROP-calculation: 9.6 MB

----------------------------------------------------------------------------
                           ORCA NUMERICAL FREQUENCIES
                              (8-process run)
----------------------------------------------------------------------------

Number of atoms                ... 12
Central differences            ... used
Translation invariance         ... used
Number of displacements        ... 72 - 6
Numerical increment            ... 5.000e-03 bohr
IR-spectrum generation         ... on
Raman-spectrum generation      ... off
Surface Crossing Hessian       ... off

The output will be reduced. Please look at the following files:
SCF program output             ... >zigzag_chain12_d1.50_m3_r2scan_numfreq.lastscf
Integral program output        ... >zigzag_chain12_d1.50_m3_r2scan_numfreq.lastint
Gradient program output        ... >zigzag_chain12_d1.50_m3_r2scan_numfreq.lastgrad
Dipole moment program output   ... >zigzag_chain12_d1.50_m3_r2scan_numfreq.lastmom

List of participating nodes    ...  zigzag_chain12_d1.50_m3_r2scan_numfreq.hostnames

	<< Calculating gradient on displaced geometry   5 (of  66) >>
	<< Calculating gradient on displaced geometry   4 (of  66) >>
	<< Calculating gradient on displaced geometry   3 (of  66) >>
	<< Calculating gradient on displaced geometry   1 (of  66) >>
	<< Calculating gradient on displaced geometry   2 (of  66) >>
	<< Calculating gradient on displaced geometry   8 (of  66) >>
	<< Calculating gradient on displaced geometry   7 (of  66) >>
	<< Calculating gradient on displaced geometry   6 (of  66) >>
	<< Calculating gradient on displaced geometry   9 (of  66) >>
	<< Calculating gradient on displaced geometry  10 (of  66) >>
	<< Calculating gradient on displaced geometry  11 (of  66) >>
	<< Calculating gradient on displaced geometry  12 (of  66) >>
	<< Calculating gradient on displaced geometry  13 (of  66) >>
	<< Calculating gradient on displaced geometry  14 (of  66) >>
	<< Calculating gradient on displaced geometry  15 (of  66) >>
	<< Calculating gradient on displaced geometry  16 (of  66) >>
	<< Calculating gradient on displaced geometry  17 (of  66) >>
	<< Calculating gradient on displaced geometry  18 (of  66) >>
	<< Calculating gradient on displaced geometry  19 (of  66) >>
	<< Calculating gradient on displaced geometry  20 (of  66) >>
	<< Calculating gradient on displaced geometry  21 (of  66) >>
	<< Calculating gradient on displaced geometry  22 (of  66) >>
	<< Calculating gradient on displaced geometry  23 (of  66) >>
	<< Calculating gradient on displaced geometry  24 (of  66) >>
	<< Calculating gradient on displaced geometry  25 (of  66) >>
	<< Calculating gradient on displaced geometry  26 (of  66) >>
	<< Calculating gradient on displaced geometry  27 (of  66) >>
	<< Calculating gradient on displaced geometry  28 (of  66) >>
	<< Calculating gradient on displaced geometry  29 (of  66) >>
	<< Calculating gradient on displaced geometry  30 (of  66) >>
	<< Calculating gradient on displaced geometry  31 (of  66) >>
	<< Calculating gradient on displaced geometry  32 (of  66) >>
	<< Calculating gradient on displaced geometry  33 (of  66) >>
	<< Calculating gradient on displaced geometry  34 (of  66) >>
	<< Calculating gradient on displaced geometry  35 (of  66) >>
	<< Calculating gradient on displaced geometry  36 (of  66) >>
	<< Calculating gradient on displaced geometry  37 (of  66) >>
	<< Calculating gradient on displaced geometry  38 (of  66) >>
	<< Calculating gradient on displaced geometry  39 (of  66) >>
	<< Calculating gradient on displaced geometry  40 (of  66) >>
	<< Calculating gradient on displaced geometry  41 (of  66) >>
	<< Calculating gradient on displaced geometry  42 (of  66) >>
	<< Calculating gradient on displaced geometry  43 (of  66) >>
	<< Calculating gradient on displaced geometry  44 (of  66) >>
	<< Calculating gradient on displaced geometry  45 (of  66) >>
	<< Calculating gradient on displaced geometry  46 (of  66) >>
	<< Calculating gradient on displaced geometry  47 (of  66) >>
	<< Calculating gradient on displaced geometry  48 (of  66) >>
	<< Calculating gradient on displaced geometry  49 (of  66) >>
	<< Calculating gradient on displaced geometry  50 (of  66) >>
	<< Calculating gradient on displaced geometry  52 (of  66) >>
	<< Calculating gradient on displaced geometry  51 (of  66) >>
	<< Calculating gradient on displaced geometry  53 (of  66) >>
	<< Calculating gradient on displaced geometry  54 (of  66) >>
	<< Calculating gradient on displaced geometry  55 (of  66) >>
	<< Calculating gradient on displaced geometry  56 (of  66) >>
	<< Calculating gradient on displaced geometry  57 (of  66) >>
	<< Calculating gradient on displaced geometry  58 (of  66) >>
	<< Calculating gradient on displaced geometry  59 (of  66) >>
	<< Calculating gradient on displaced geometry  60 (of  66) >>
	<< Calculating gradient on displaced geometry  61 (of  66) >>
	<< Calculating gradient on displaced geometry  62 (of  66) >>
	<< Calculating gradient on displaced geometry  63 (of  66) >>
	<< Calculating gradient on displaced geometry  64 (of  66) >>
	<< Calculating gradient on displaced geometry  65 (of  66) >>
	<< Calculating gradient on displaced geometry  66 (of  66) >>

-----------------------
VIBRATIONAL FREQUENCIES
-----------------------

Scaling factor for frequencies =  1.000000000  (already applied!)

     0:       0.00 cm**-1
     1:       0.00 cm**-1
     2:       0.00 cm**-1
     3:       0.00 cm**-1
     4:       0.00 cm**-1
     5:       0.00 cm**-1
     6:   -2022.99 cm**-1  ***imaginary mode***
     7:    -321.76 cm**-1  ***imaginary mode***
     8:    -132.67 cm**-1  ***imaginary mode***
     9:    -122.87 cm**-1  ***imaginary mode***
    10:     -63.11 cm**-1  ***imaginary mode***
    11:     -18.78 cm**-1  ***imaginary mode***
    12:      15.39 cm**-1
    13:     120.84 cm**-1
    14:     151.44 cm**-1
    15:     168.49 cm**-1
    16:     200.36 cm**-1
    17:     248.58 cm**-1
    18:     394.79 cm**-1
    19:     423.03 cm**-1
    20:     440.08 cm**-1
    21:     441.81 cm**-1
    22:     447.97 cm**-1
    23:     591.22 cm**-1
    24:     606.81 cm**-1
    25:     748.77 cm**-1
    26:     919.99 cm**-1
    27:     923.04 cm**-1
    28:     973.98 cm**-1
    29:    1022.97 cm**-1
    30:    1149.03 cm**-1
    31:    1162.87 cm**-1
    32:    1277.30 cm**-1
    33:    1286.20 cm**-1
    34:    1473.14 cm**-1
    35:    1480.55 cm**-1


------------
NORMAL MODES
------------

These modes are the Cartesian displacements weighted by the diagonal matrix
M(i,i)=1/sqrt(m[i]) where m[i] is the mass of the displaced atom
Thus, these vectors are normalized but *not* orthogonal

                  0          1          2          3          4          5    
      0       0.000000   0.000000   0.000000   0.000000   0.000000   0.000000
      1       0.000000   0.000000   0.000000   0.000000   0.000000   0.000000
      2       0.000000   0.000000   0.000000   0.000000   0.000000   0.000000
      3       0.000000   0.000000   0.000000   0.000000   0.000000   0.000000
      4       0.000000   0.000000   0.000000   0.000000   0.000000   0.000000
      5       0.000000   0.000000   0.000000   0.000000   0.000000   0.000000
      6       0.000000   0.000000   0.000000   0.000000   0.000000   0.000000
      7       0.000000   0.000000   0.000000   0.000000   0.000000   0.000000
      8       0.000000   0.000000   0.000000   0.000000   0.000000   0.000000
      9       0.000000   0.000000   0.000000   0.000000   0.000000   0.000000
     10       0.000000   0.000000   0.000000   0.000000   0.000000   0.000000
     11       0.000000   0.000000   0.000000   0.000000   0.000000   0.000000
     12       0.000000   0.000000   0.000000   0.000000   0.000000   0.000000
     13       0.000000   0.000000   0.000000   0.000000   0.000000   0.000000
[...]
      3       0.355076  -0.217817   0.171637   0.123586   0.092741  -0.000835
      4       0.196230   0.046699  -0.065710   0.050050  -0.023648  -0.000922
      5       0.000043  -0.000045  -0.000128  -0.000017   0.000546   0.149548
      6      -0.000768   0.104925  -0.233655  -0.026063  -0.145885   0.000710
      7      -0.439624   0.001798   0.018923  -0.106376   0.002536   0.000653
      8       0.000945   0.000013   0.000174  -0.000009  -0.000617  -0.167539
      9       0.006878   0.463973  -0.452661  -0.052950  -0.195183   0.000284
     10       0.168568  -0.005728   0.005210  -0.003066   0.001939   0.000050
     11      -0.000707   0.000048   0.000037   0.000027  -0.000194  -0.051814
     12      -0.011263   0.361886  -0.078904  -0.020146   0.038743  -0.000084
     13       0.007928  -0.004166   0.040085  -0.327292  -0.000935  -0.000389
     14       0.001077  -0.000195  -0.000371  -0.000106   0.001525   0.406696
     15       0.238898  -0.001082   0.459295  -0.545800  -0.015315   0.000380
     16      -0.114254  -0.208292  -0.010599   0.010508  -0.649072   0.002456
     17      -0.000474   0.000081   0.000123   0.000019  -0.000433  -0.117092
     18      -0.242467   0.006045   0.315661   0.645412   0.001542   0.001088
     19      -0.106846   0.209243   0.001051  -0.004174   0.648585  -0.002493
     20      -0.000845   0.000194   0.000393   0.000158  -0.001709  -0.452409
     21      -0.010314  -0.383620  -0.083874  -0.012553  -0.022892  -0.001390
     22       0.221641   0.004731  -0.037346   0.318153   0.000833   0.000359
     23       0.000895  -0.000224  -0.000430  -0.000171   0.001831   0.489996
     24      -0.000385  -0.454156  -0.452941  -0.052478   0.198942  -0.001098
     25      -0.176553   0.005056   0.003953   0.005874  -0.002251   0.000014
     26       0.000544  -0.000062  -0.000079  -0.000040   0.000391   0.107419
     27       0.005307  -0.097851  -0.228213  -0.025205   0.143191  -0.000235
     28       0.322622   0.001561  -0.006096   0.097852  -0.000019  -0.000885
     29      -0.001103   0.000051  -0.000039  -0.000137   0.000328   0.106040
     30      -0.210505   0.216670   0.193161  -0.070626  -0.096054   0.001287
     31      -0.135518  -0.031600  -0.053874  -0.048344   0.008365   0.002046
     32       0.000742  -0.000098  -0.000154  -0.000022   0.000668   0.179414
     33       0.216491   0.215163   0.187554   0.113947  -0.093003  -0.000299
     34      -0.141155   0.026030   0.057523  -0.044793  -0.007470  -0.001205
     35      -0.000408   0.000161   0.000367   0.000222  -0.001770  -0.493326
                 30         31         32         33         34         35    
      0      -0.099886   0.066314   0.135303  -0.118579   0.042023  -0.089330
      1      -0.453718   0.262715  -0.371097   0.281694  -0.036662   0.013330
      2       0.000133   0.000335  -0.000150   0.000010  -0.000189   0.000057
      3      -0.067452   0.089632   0.127154  -0.147113   0.042234  -0.086808
      4       0.465122  -0.248253   0.359881  -0.291590   0.035621  -0.007310
      5      -0.000201  -0.000436   0.000193  -0.000036   0.000145   0.000076
      6       0.372526  -0.269622  -0.359320   0.394770  -0.201014   0.386017
      7      -0.017994  -0.015747   0.012986   0.010209   0.003038  -0.005830
      8       0.000290   0.000590  -0.000255   0.000071  -0.000120  -0.000216
      9      -0.113357   0.032030  -0.047117  -0.041678   0.295949  -0.543993
     10       0.001281   0.000018   0.000457   0.000233  -0.002952   0.005817
     11       0.000009   0.000093  -0.000052   0.000003  -0.000043   0.000039
     12      -0.306001   0.206151   0.309178  -0.265921  -0.287982   0.532164
     13       0.003985  -0.007243   0.000946   0.005754   0.002793  -0.006922
     14      -0.000365  -0.000998   0.000456  -0.000063   0.000288   0.000039
     15       0.192821   0.048899  -0.004912   0.182321  -0.054375  -0.172706
     16      -0.039544   0.117465   0.122182  -0.000937  -0.066426   0.021684
     17       0.000102   0.000287  -0.000141  -0.000011  -0.000017  -0.000009
     18       0.183452   0.046467  -0.009675   0.183172  -0.052256  -0.171245
     19       0.041616  -0.107595  -0.129164  -0.011015   0.067423  -0.016684
     20       0.000412   0.001087  -0.000480   0.000092  -0.000388  -0.000029
     21      -0.151131  -0.318772  -0.276468  -0.286613   0.544015   0.283915
     22      -0.004757  -0.000632   0.004277   0.005975  -0.005065  -0.002568
     23      -0.000447  -0.001191   0.000542  -0.000064   0.000365   0.000023
     24      -0.062546  -0.083688   0.025020  -0.039707  -0.557825  -0.281501
     25       0.001980   0.002657  -0.001158  -0.000409   0.005581   0.002924
     26      -0.000069  -0.000243   0.000120  -0.000012   0.000097  -0.000032
     27       0.166416   0.418145   0.355751   0.421225   0.384060   0.183526
     28      -0.016956  -0.023429   0.007769   0.008443  -0.003279  -0.002044
     29      -0.000318  -0.000350   0.000096  -0.000121   0.000361   0.000194
     30      -0.012673  -0.090344  -0.140561  -0.156300  -0.085038  -0.040808
     31       0.307821   0.455554  -0.322066  -0.322831  -0.026928   0.019787
     32      -0.000141  -0.000450   0.000232   0.000019   0.000120  -0.000052
     33      -0.102169  -0.145211  -0.114353  -0.125577  -0.069791   0.000769
     34      -0.288835  -0.435510   0.314986   0.314474   0.026857  -0.022184
     35       0.000595   0.001277  -0.000561   0.000112  -0.000618  -0.000090


-----------
IR SPECTRUM
-----------

 Mode   freq       eps      Int      T**2         TX        TY        TZ
       cm**-1   L/(mol*cm) km/mol    a.u.
----------------------------------------------------------------------------
 12:     15.39   0.006260   31.64  0.126961  ( 0.355260 -0.027404  0.000054)
 13:    120.84   0.012300   62.16  0.031764  ( 0.178215 -0.001683 -0.000505)
 14:    151.44   0.126911  641.36  0.261511  (-0.511202 -0.013530  0.000575)
 15:    168.49   0.028520  144.13  0.052823  (-0.001485 -0.000116 -0.229828)
 16:    200.36   0.002078   10.50  0.003236  ( 0.003654 -0.000115  0.056771)
 17:    248.58   0.066288  334.99  0.083218  ( 0.288443 -0.004265  0.000037)
 18:    394.79   0.013623   68.85  0.010768  ( 0.000675  0.000030  0.103769)
 19:    423.03   0.021898  110.66  0.016154  ( 0.127081  0.002079  0.000104)
 20:    440.08   0.000002    0.01  0.000001  (-0.000198 -0.000953  0.000342)
 21:    441.81   0.008861   44.78  0.006259  ( 0.007849  0.078722 -0.000008)
 22:    447.97   0.131781  665.97  0.091800  ( 0.302661 -0.014030 -0.000019)
 23:    591.22   0.036048  182.17  0.019027  (-0.137936  0.000720 -0.000424)
 24:    606.81   0.031329  158.32  0.016111  (-0.126592  0.009191 -0.001163)
 25:    748.77   0.025710  129.93  0.010715  (-0.103513  0.000432  0.000428)
 26:    919.99   0.009702   49.03  0.003291  (-0.057339 -0.001281  0.001220)
 27:    923.04   0.008043   40.64  0.002719  (-0.052078  0.002595  0.000450)
 28:    973.98   0.005511   27.85  0.001766  ( 0.041629  0.000359 -0.005708)
 29:   1022.97   9.093862  45956.65  2.774144  (-0.002012 -0.000010 -1.665575)
 30:   1149.03   0.162270  820.05  0.044071  (-0.209658  0.010513  0.001870)
 31:   1162.87   0.003381   17.09  0.000907  (-0.027736  0.010606  0.005054)
 32:   1277.30   0.008850   44.72  0.002162  ( 0.045830 -0.007397 -0.002657)
 33:   1286.20   0.064724  327.09  0.015704  ( 0.124932 -0.009770  0.000360)
 34:   1473.14   0.005208   26.32  0.001103  ( 0.033129 -0.000731 -0.002276)
 35:   1480.55   0.004571   23.10  0.000963  ( 0.031038  0.000183 -0.000213)

* The epsilon (eps) is given for a Dirac delta lineshape.
** The dipole moment derivative (T) already includes vibrational overlap.

The first frequency considered to be a vibration is 12
The total number of vibrations considered is 24


--------------------------
THERMOCHEMISTRY AT 298.15K
--------------------------

Temperature         ...   298.15 K
Pressure            ...     1.00 atm
Total Mass          ...   129.72 AMU
Quasi RRHO          ...     True
Cut-Off Frequency   ...     1.00 cm^-1

Throughout the following assumptions are being made:
  (1) The electronic state is orbitally nondegenerate
      but the spin degeneracy is treated
  (2) There are no thermally accessible electronically excited states
  (3) Hindered rotations indicated by low frequency modes are not
      treated as such but are treated as vibrations and this may
      cause some error
  (4) All equations used are the standard statistical mechanics
      equations for an ideal gas
  (5) All vibrations are strictly harmonic

freq.      15.39  E(vib)   ...       0.57 
freq.     120.84  E(vib)   ...       0.44 
freq.     151.44  E(vib)   ...       0.40 
freq.     168.49  E(vib)   ...       0.38 
freq.     200.36  E(vib)   ...       0.35 
freq.     248.58  E(vib)   ...       0.31 
freq.     394.79  E(vib)   ...       0.20 
freq.     423.03  E(vib)   ...       0.18 
freq.     440.08  E(vib)   ...       0.17 
freq.     441.81  E(vib)   ...       0.17 
freq.     447.97  E(vib)   ...       0.17 
freq.     591.22  E(vib)   ...       0.10 
freq.     606.81  E(vib)   ...       0.10 
freq.     748.77  E(vib)   ...       0.06 
freq.     919.99  E(vib)   ...       0.03 
freq.     923.04  E(vib)   ...       0.03 
freq.     973.98  E(vib)   ...       0.03 
freq.    1022.97  E(vib)   ...       0.02 
freq.    1149.03  E(vib)   ...       0.01 
freq.    1162.87  E(vib)   ...       0.01 
freq.    1277.30  E(vib)   ...       0.01 
freq.    1286.20  E(vib)   ...       0.01 
freq.    1473.14  E(vib)   ...       0.00 
freq.    1480.55  E(vib)   ...       0.00 

------------
INNER ENERGY
------------

The inner energy is: U= E(el) + E(ZPE) + E(vib) + E(rot) + E(trans)
    E(el)   - is the total energy from the electronic structure calculation
              = E(kin-el) + E(nuc-el) + E(el-el) + E(nuc-nuc)
    E(ZPE)  - the the zero temperature vibrational energy from the frequency calculation
    E(vib)  - the the finite temperature correction to E(ZPE) due to population
              of excited vibrational states
    E(rot)  - is the rotational thermal energy
    E(trans)- is the translational thermal energy

Summary of contributions to the inner energy U:
Electronic energy                ...   -297.45168249 Eh
Zero point energy                ...      0.03797395 Eh      23.83 kcal/mol
Thermal vibrational correction   ...      0.00598198 Eh       3.75 kcal/mol
Thermal rotational correction    ...      0.00141627 Eh       0.89 kcal/mol
Thermal translational correction ...      0.00141627 Eh       0.89 kcal/mol
-----------------------------------------------------------------------
Total thermal energy                   -297.40489401 Eh


Summary of corrections to the electronic energy:
(perhaps to be used in another calculation)
Total thermal correction                  0.00881453 Eh       5.53 kcal/mol
Non-thermal (ZPE) correction              0.03797395 Eh      23.83 kcal/mol
-----------------------------------------------------------------------
Total correction                          0.04678848 Eh      29.36 kcal/mol


--------
ENTHALPY
--------

The enthalpy is H = U + kB*T
                kB is Boltzmann's constant
Total thermal energy              ...   -297.40489401 Eh 
Thermal Enthalpy correction       ...      0.00094421 Eh       0.59 kcal/mol
-----------------------------------------------------------------------
Total Enthalpy                    ...   -297.40394980 Eh


Note: Only C1 symmetry has been detected, increase convergence thresholds 
      if your molecule has a higher symmetry. Symmetry factor of 1.0 is   
      used for the rotational entropy correction. 
 

Note: Rotational entropy computed according to Herzberg 
Infrared and Raman Spectra, Chapter V,1, Van Nostrand Reinhold, 1945 
Point Group:  C1, Symmetry Number:   1  
Rotational constants in cm-1:     0.434719     0.007636     0.007504 

Vibrational entropy computed according to the QRRHO of S. Grimme
Chem.Eur.J. 2012 18 9955 using a reference frequency of 100.0 cm-1


-------
ENTROPY
-------

The entropy contributions are T*S = T*(S(el)+S(vib)+S(rot)+S(trans))
     S(el)   - electronic entropy
     S(vib)  - vibrational entropy
     S(rot)  - rotational entropy
     S(trans)- translational entropy
The entropies will be listed as multiplied by the temperature to get
units of energy

Electronic entropy                ...      0.00103729 Eh      0.65 kcal/mol
Vibrational entropy               ...      0.01079260 Eh      6.77 kcal/mol
Rotational entropy                ...      0.01451513 Eh      9.11 kcal/mol
Translational entropy             ...      0.01923977 Eh     12.07 kcal/mol
-----------------------------------------------------------------------
Final entropy term                ...      0.04558479 Eh     28.60 kcal/mol

In case the symmetry of your molecule has not been determined correctly
or in case you have a reason to use a different symmetry number we print 
out the resulting rotational entropy values for sn=1,12:

 non-linear molecules -----------------------------------
|  sn= 1 | S(rot)=       0.01451513 Eh      9.11 kcal/mol|
|  sn= 2 | S(rot)=       0.01386067 Eh      8.70 kcal/mol|
|  sn= 3 | S(rot)=       0.01347784 Eh      8.46 kcal/mol|
|  sn= 4 | S(rot)=       0.01320621 Eh      8.29 kcal/mol|
|  sn= 5 | S(rot)=       0.01299553 Eh      8.15 kcal/mol|
|  sn= 6 | S(rot)=       0.01282338 Eh      8.05 kcal/mol|
|  sn= 7 | S(rot)=       0.01267784 Eh      7.96 kcal/mol|
|  sn= 8 | S(rot)=       0.01255176 Eh      7.88 kcal/mol|
|  sn= 9 | S(rot)=       0.01244055 Eh      7.81 kcal/mol|
|  sn=10 | S(rot)=       0.01234107 Eh      7.74 kcal/mol|
|  sn=11 | S(rot)=       0.01225108 Eh      7.69 kcal/mol|
|  sn=12 | S(rot)=       0.01216892 Eh      7.64 kcal/mol|
 linear molecules ---------------------------------------
|  Dinfh | S(rot)=       0.00994507 Eh      6.24 kcal/mol|
|  Cinfv | S(rot)=       0.01059952 Eh      6.65 kcal/mol|
 --------------------------------------------------------


-------------------
GIBBS FREE ENERGY
-------------------

The Gibbs free energy is G = H - T*S

Total enthalpy                    ...   -297.40394980 Eh 
Total entropy correction          ...     -0.04558479 Eh    -28.60 kcal/mol
-----------------------------------------------------------------------
Final Gibbs free energy         ...   -297.44953459 Eh

For completeness - the Gibbs free energy minus the electronic energy
G-E(el)                           ...      0.00214790 Eh      1.35 kcal/mol



--------------------------------
SUGGESTED CITATIONS FOR THIS RUN
--------------------------------

Below you find a list of papers that are relevant to this ORCA run
We neither can nor want to force you to cite these papers, but we appreciate if you do
You receive ORCA, which is the product of decades of hard work by many enthusiastic individuals, for free
The only thing we kindly ask in return is that you cite our papers,
We deeply appreciate it, if you show your appreciation for ORCA by not just citing the generic ORCA reference.

Please note that relegating all ORCA citations to the supporting information does *not* help us.
SI sections are not indexed - citations you put there will not count into any citation statistics
But we need these citations in order to attract the funding resources that allow us to do what we are doing

Therefore, if you are a happy ORCA user, please consider citing a few of the papers listed below in the main body of your paper

In addition to the list printed below, the program has created the file zigzag_chain12_d1.50_m3_r2scan_numfreq.bibtex that contains the list in bibtex format
You can import this file easily into all common literature databanks and citation aid programs

It goes without saying that in many instances, there are alternative algorithms to achieve similar
results as the ones you have gotten from ORCA. It is, of course, also the case that in some instances
ORCA just re-implements algorithms worked out by others. We are fully aware of that and we are also
fully appreciative of our colleagues work. Hence this citation list should not be read as indicating
that the listed papers, which are focused on our own work, are the only ones worth citing. It simply
meant to make it easier for users to cite ORCA specific papers. It is not a substitute for doing your
own literature research and citing the relevant literature in a scientifically appropriate manner.

List of essential papers. We consider these as the minimum necessary citations

  1. Grimme, S.; Hansen, A.; Ehlert, S.; Mewes, J.
     r2SCAN-3c: A 'Swiss army knife' composite electronic-structure method
     J. Chem. Phys. 2021 154 , 064103
     doi.org/10.1063/5.0040021
  2. Neese, F.
     Software update: the ORCA program system, version 6.0
     WIRES Comput. Molec. Sci. 2025 15(1), e70019
     doi.org/10.1002/wcms.70019

List of papers to cite with high priority. The work reported in these papers was absolutely
necessary for this run to complete.
Our perspective: the developers of density functionals and basis sets usually get cited in chemistry papers
Good! But without the algorithms to do something with them, the functionals or basis sets would not do anything.
Hence, in our opinion, the algorithm design and method developments papers are equally worthy of getting cited

  1. Neese, F.
     An improvement of the resolution of the identity approximation for the formation of the Coulomb matrix
     J. Comp. Chem. 2003 24(14), 1740-1747
     doi.org/10.1002/jcc.10318
  2. Caldeweyher, E.; Bannwarth, C.; Grimme, S.
     Extension of the D3 dispersion coefficient model
     J. Chem. Phys. 2017 147 , 034112
     doi.org/10.1063/1.4993215
  3. Lehtola, S.; Steigemann, C.; Oliveira, M.; Marques, M.
     Recent developments in Libxc - A comprehensive library of functionals for density functional theory
     Software X 2018 7 , 
     doi.org/10.1016/j.softx.2017.11.002
  4. Caldeweyher, E.; Ehlert, S.; Hansen, A.; Neugebauer, H.; Spicher, S.; Bannwarth, C.; Grimme, S.
     A generally applicable atomic-charge dependent London dispersion correction
     J. Chem. Phys. 2019 150 , 154122
     doi.org/10.1063/1.5090222
  5. Neese, F.
     The SHARK Integral Generation and Digestion System
     J. Comp. Chem. 2022 44(3), 381
     doi.org/10.1002/jcc.26942

List of suggested additional citations. These are papers that are important in the 'surrounding' of 
of this run, or papers that preceded the highly important papers. If you like your results we are grateful for a citation.

  1. Neese, F.
     The ORCA program system
     WIRES Comput. Molec. Sci. 2012 2(1), 73-78
     doi.org/10.1002/wcms.81
  2. Neese, F.
     Software update: the ORCA program system, version 4.0
     WIRES Comput. Molec. Sci. 2018 8(1), 1-6
     doi.org/10.1002/wcms.1327
  3. Neese, F.; Wennmohs, F.; Becker, U.; Riplinger, C.
     The ORCA quantum chemistry program package
     J. Chem. Phys. 2020 152(22), 224108
     doi.org/10.1063/5.0004608
  4. Neese, F.
     Software update: The ORCA program system—Version 5.0
     WIRES Comput. Molec. Sci. 2022 12(1), e1606
     doi.org/10.1002/wcms.1606

List of optional additional citations

  1. Neese, F.
     Approximate second-order SCF convergence for spin unrestricted wavefunctions
     Chem. Phys. Lett. 2000 325(1-3), 93-98
     doi.org/10.1016/s0009-2614(00)00662-x

Timings for individual modules:

Sum of individual times          ...      526.792 sec (=   8.780 min)
Startup calculation              ...        2.810 sec (=   0.047 min)   0.5 %
SCF iterations                   ...       33.734 sec (=   0.562 min)   6.4 %
Property calculations            ...        0.580 sec (=   0.010 min)   0.1 %
SCF Gradient evaluation          ...        4.750 sec (=   0.079 min)   0.9 %
Numerical frequency calculation  ...      484.917 sec (=   8.082 min)  92.1 %
                             ****ORCA TERMINATED NORMALLY****
TOTAL RUN TIME: 0 days 0 hours 8 minutes 26 seconds 602 msec
