
                                 *****************
                                 * O   R   C   A *
                                 *****************

                                            #,                                       
                                            ###                                      
                                            ####                                     
                                            #####                                    
                                            ######                                   
                                           ########,                                 
                                     ,,################,,,,,                         
                               ,,#################################,,                 
                          ,,##########################################,,             
                       ,#########################################, ''#####,          
                    ,#############################################,,   '####,        
                  ,##################################################,,,,####,       
                ,###########''''           ''''###############################       
              ,#####''   ,,,,##########,,,,          '''####'''          '####       
            ,##' ,,,,###########################,,,                        '##       
           ' ,,###''''                  '''############,,,                           
         ,,##''                                '''############,,,,        ,,,,,,###''
      ,#''                                            '''#######################'''  
     '                                                          ''''####''''         
             ,#######,   #######,   ,#######,      ##                                
            ,#'     '#,  ##    ##  ,#'     '#,    #''#        ,####,    ,#,          
            ##       ##  ##   ,#'  ##            #'  '#       #'       ,# #          
            ##       ##  #######   ##           ,######,      #####,      #          
            '#,     ,#'  ##    ##  '#,     ,#' ,#      #,     #,   #      #          
             '#######'   ##     ##  '#######'  #'      '#     '####' #    #          



                #########################################################
                #                        -***-                          #
                #          Department of theory and spectroscopy        #
                #                                                       #
                #                      Frank Neese                      #
                #                                                       #
                #     Directorship, Architecture, Infrastructure        #
                #                    SHARK, DRIVERS                     #
                #        Core code/Algorithms in most modules           #
                #                                                       #
                #        Max Planck Institute fuer Kohlenforschung      #
                #                Kaiser Wilhelm Platz 1                 #
                #                 D-45470 Muelheim/Ruhr                 #
                #                      Germany                          #
                #                                                       #
                #                  All rights reserved                  #
                #                        -***-                          #
                #########################################################


                         Program Version 6.1.1  -  RELEASE   -
                                (GIT: $487d211c$)
                          ($2025-11-21 10:33:24 +0100$)
                                                                         
                                  - NO-DMRG VERSION -                    
                                                                         


 With contributions from (in alphabetic order):
[Max-Planck-Institut fuer Kohlenforschung]                               
  Daniel Aravena         : Magnetic Suceptibility                        
  Michael Atanasov       : Ab Initio Ligand Field Theory (pilot matlab implementation)
  Alexander A. Auer      : GIAO ZORA, VPT2 properties, NMR spectrum      
  Ute Becker             : All parallelization in ORCA, NUMFREQ, NUMCALC 
  Giovanni Bistoni       : ED, misc. LED, open-shell LED, HFLD           
  Dmytro Bykov           : pre 5.0 version of the SCF Hessian            
  Marcos Casanova-Páez   : Triplet and SCS-CIS(D). UHF-(DLPNO)-IP/EA/STEOM-CCSD. UHF-CVS-IP/STEOM-CCSD   
  Vijay G. Chilkuri      : MRCI spin determinant printing, contributions to CSF-ICE 
  Pauline Colinet        : FMM embedding                                 
  Dipayan Datta          : RHF DLPNO-CCSD density                        
  Achintya Kumar Dutta   : EOM-CC, STEOM-CC                              
  Nicolas Foglia         : Exact transition moments, OPA infrastructure, MCD improvements    
  Dmitry Ganyushin       : Spin-Orbit,Spin-Spin,Magnetic field MRCI      
  Miquel Garcia-Rates    : C-PCM and meta-GGA Hessian, CCSD/C-PCM, Gaussian charge scheme 
  Tiago L. C. Gouveia    : GS-ROHF, GS-ROCIS                             
  Yang Guo               : DLPNO-NEVPT2, F12-NEVPT2, CIM, IAO-localization        
  Andreas Hansen         : Spin unrestricted coupled pair/coupled cluster methods 
  Ingolf Harden          : AUTO-CI MPn and infrastructure                
  Benjamin Helmich-Paris : MC-RPA, TRAH-(SCF,CASSCF), AVAS, COSX integrals, SCF dyn. polar., MC-PDFT, srDFT 
  Lee Huntington         : MR-EOM, pCC                                   
  Robert Izsak           : Overlap fitted RIJCOSX, COSX-SCS-MP3, EOM     
  Riya Kayal             : Wick's Theorem for AUTO-CI, AUTO-CI UHF-CCSDT 
  Emily Kempfer          : AUTO-CI RHF CISDT and CCSDT, approximate NEVPT4
  Christian Kollmar      : KDIIS, OOCD, Brueckner-CCSD(T), CCSD density, CASPT2, CASPT2-K, improved NEVPT2 
  Axel Koslowski         : Symmetry handling                             
  Simone Kossmann        : meta-GGA functionals, TD-DFT gradient, OOMP2, (MP2 Hessian; deprecated post 5.0) 
  Lucas Lang             : DCDCAS, Hyperfine gauge corrections, ICE-SOC+SSC
  Marvin Lechner         : AUTO-CI (C++ implementation), FIC-MRCC        
  Spencer Leger          : CASSCF response                               
  Dagmar Lenk            : GEPOL surface, SMD, ORCA-2-JSON               
  Dimitrios Liakos       : Extrapolation schemes; Compound Job, Property file
  Dimitrios Manganas     : Further ROCIS development; embedding schemes. LFT, Crystal Embedding 
  Dimitrios Pantazis     : SARC Basis sets                               
  Anastasios Papadopoulos: AUTO-CI, single reference methods and gradients 
  Taras Petrenko         : pre 6.0 DFT Hessian and TD-DFT gradient,  ECA, NRVS 
  Petra Pikulova         : Analytic Raman intensities                    
  Peter Pinski           : DLPNO-MP2, DLPNO-MP2 Gradient                 
  Shashank Vittal Rao    : ES-AILFT, MagRelax                            
  Christoph Reimann      : Effective Core Potentials                     
  Marius Retegan         : Local ZFS, SOC                                
  Christoph Riplinger    : Optimizer, TS searches, QM/MM, DLPNO-CCSD(T), (RO)-DLPNO pert. Triples 
  Michael Roemelt        : Original ROCIS implementation, recursive CI coupling coefficients
  Masaaki Saitow         : Open-shell DLPNO-CCSD energy and density      
  Barbara Sandhoefer     : DKH picture change effects                    
  Yorick L. A. Schmerwitz: GMF and freeze-and-release deltaSCF, NEB S-IDPP initial path                    
  Kantharuban Sivalingam : CASSCF convergence/infrastructure, NEVPT2, NEVPT3, NEVPT4(SD), FIC-MRCI and CEPA variants
  Bernardo de Souza      : ESD, SOC TD-DFT                               
  Georgi L. Stoychev     : AutoAux, RI-MP2 NMR, DLPNO-MP2 response, X2C  
  Van Anh Tran           : RI-MP2 g-tensors                              
  Willem Van den Heuvel  : Paramagnetic NMR                              
  Zikuan Wang            : NOTCH, Electric field optimization            
  Frank Wennmohs         : Technical directorship and infrastructure     
  Hang Xu                : AUTO-CI-Response properties                   
                                                                         
[FACCTs GmbH]                                                            
  Markus Bursch, Nicolas Foglia, Miquel Garcia-Rates, Ingolf Harden, Hagen Neugebauer, Anastasios Papadopoulos, 
  Christoph Riplinger, Bernardo de Souza, Georgi L. Stoychev                                                    
                                                                 
  APM, various basis sets, CI-OPT, improved COSX, DLPNO-Multilevel,           
  DOCKER, DRACO, updates on ESD, Fragmentator, GOAT, IRC, LR-CPCM, L-BFGS, MBIS, meta-GGA TD-DFT gradient, ML-optimized integration grids, 
  MM, NACMEs, nearIR, NEB, NEB-TS, NL-DFT gradient (VV10), 2- and 3-layer-ONIOM, interface openCOSMO-RS, QMMM,   
  Crystal-QMMM, RESP, rigid body optimization, SF, symmetry and pop. for TD-DFT, various functionals, SOLVATOR                                   
                                                                         
[Other institutions]                                                     
  V. Asgeirsson          : NEB                                           
  Christoph Bannwarth    : sTDA-DFT, sTD-DFT, PBEh-3c, B97-3c, D3        
  Giovanni Bistoni       : ETS/NOCV, ADLD/ADEX, COVALED                  
  Martin Brehm           : Molecular dynamics                            
  Ronald Cardenas        : ETS/NOCV                                      
  Martina Colucci        : COVALED                                       
  Sebastian Ehlert       : rSCAN, r2SCAN, r2SCAN-3c, D4, dhf basis sets  
  Marvin Friede          : D4 for Fr, Ra, Ac-Lr                          
  Lars Goerigk           : TD-DFT with DH, B97 family of functionals     
  Stefan Grimme          : VdW corrections, initial TS optimization, DFT functionals, gCP, sTDA/sTD-DF 
  Waldemar Hujo          : DFT-NL                                        
  H. Jonsson             : NEB                                           
  Holger Kruse           : gCP                                           
  Marcel Mueller         : wB97X-3c, vDZP basis set                      
  Hagen Neugebauer       : wr2SCAN, Native XTB                           
  Gianluca Regni         : ADLD/ADEX                                     
  Tobias Risthaus        : pre 6.0 range-separated hybrid DFT and stability analysis
  Lukas Wittmann         : regularized MP2, r2SCAN double-hybrids, wr2SCAN        
                                                                         
We gratefully acknowledge several colleagues who have allowed us to      
interface, adapt or use parts of their codes:                            
  Ed Valeev, F. Pavosevic, A. Kumar             : LibInt (2-el integral package), F12 methods 
  Garnet Chan, S. Sharma, J. Yang, R. Olivares  : DMRG                   
  Ulf Ekstrom                                   : XCFun DFT Library      
  Mihaly Kallay                                 : mrcc  (arbitrary order and MRCC methods)
  Frank Weinhold                                : gennbo (NPA and NBO analysis)           
  Simon Mueller                                 : openCOSMO-RS                            
  Christopher J. Cramer and Donald G. Truhlar   : smd solvation model                     
  S Lehtola, MJT Oliveira, MAL Marques          : LibXC Library                           
  Liviu Ungur et al                             : ANISO software                          


 Your calculation uses the libint2 library for the computation of 2-el integrals
 For citations please refer to: http://libint.valeyev.net

 Your ORCA version has been built with support for libXC version: 7.0.0
 For citations please refer to: https://libxc.gitlab.io

 This ORCA versions uses:
   CBLAS   interface :  Fast vector & matrix operations
   LAPACKE interface :  Fast linear algebra routines
   SCALAPACK package :  Parallel linear algebra routines
   Shared memory     :  Shared parallel matrices
   BLAS/LAPACK       :  OpenBLAS 0.3.29  USE64BITINT DYNAMIC_ARCH NO_AFFINITY Zen SINGLE_THREADED
        Core in use  :  Zen
   Copyright (c) 2011-2014, The OpenBLAS Project


  ***********************************
  * Starting time: Fri Apr 17 13:42:05 2026
  * Host name:     vmi3233575
  * Process ID:    343497
  * Working dir.:  /root/orca_b12_vps_pack/jobs/02_r2scan
  ***********************************

NOTE: MaxCore=2000 MB was set to SCF,MP2,MDCI,CIPSI,MRCI,RASCI and CIS
      => If you want to overwrite this, your respective input block should be placed after the MaxCore statement


***************************************
The coordinates will be read from file: ../../results/01_xtb_xyz/double_ring_6_6_d1.90_m1.xyz
***************************************


Your calculation utilizes the geometrical counterpoise correction gCP
Please cite in your paper:
H.Kruse, S. Grimme J.Chem.Phys., 136, (2012), 154101 
   

Your calculation utilizes the atom-pairwise dispersion correction
based on EEQ partial charges (D4)


================================================================================

----- Orbital basis set information -----
Your calculation utilizes the basis: def2-mTZVPP
   Stefan Grimme, Andreas Hansen, Sebastian Ehlert, and Jan-Michael Mewes 
   J. Chem. Phys. 154, 064103 (2021). DOI: 10.1063/5.0040021

----- AuxJ basis set information -----
Your calculation utilizes the basis: def2-mTZVPP/J
   Stefan Grimme, Andreas Hansen, Sebastian Ehlert, and Jan-Michael Mewes 
   J. Chem. Phys. 154, 000000 (2021). DOI: 10.1063/5.0040021

================================================================================
                                        WARNINGS
                       Please study these warnings very carefully!
================================================================================



WARNING: SCAN, rSCAN, or r2SCAN functional requested.
  ===> : libXC variant has now been activated.



WARNING: Geometry Optimization
  ===> : Switching off AutoStart
         For restart on a previous wavefunction, please use MOREAD

================================================================================
                                       INPUT FILE
================================================================================
NAME = double_ring_6_6_d1.90_m1_r2scan.inp
|  1> ! r2SCAN-3c TightSCF TightOpt
|  2> 
|  3> %pal
|  4>   nprocs 8
|  5> end
|  6> 
|  7> %maxcore 2000
|  8> 
|  9> * xyzfile 0 1 ../../results/01_xtb_xyz/double_ring_6_6_d1.90_m1.xyz
| 10> 
| 11>                          ****END OF INPUT****
================================================================================

                       *****************************
                       * Geometry Optimization Run *
                       *****************************

Geometry optimization settings:
Update method            Update   .... BFGS
Choice of coordinates    CoordSys .... (2022) Redundant Internals
Initial Hessian          InHess   .... Almloef's Model
Max. no of cycles        MaxIter  .... 50

Convergence Tolerances:
Energy Change            TolE     ....  1.0000e-06 Eh
Max. Gradient            TolMAXG  ....  1.0000e-04 Eh/bohr
RMS Gradient             TolRMSG  ....  3.0000e-05 Eh/bohr
Max. Displacement        TolMAXD  ....  1.0000e-03 bohr
RMS Displacement         TolRMSD  ....  6.0000e-04 bohr
Strict Convergence                .... False

------------------------------------------------------------------------------
                        ORCA OPTIMIZATION COORDINATE SETUP
------------------------------------------------------------------------------

The optimization will be done in redundant internal coordinates (2022)
Making redundant internal coordinates   ...  (2022 redundants) done
Evaluating the initial hessian          ...  (Almloef) done
Evaluating the coordinates              ...  done
Calculating the B-matrix                .... done
Calculating the G-matrix                .... done
The number of degrees of freedom        ....  240

    -----------------------------------------------------------------
                    Redundant Internal Coordinates


    -----------------------------------------------------------------
         Definition                    Initial Value    Approx d2E/dq
    -----------------------------------------------------------------
      1. B(B   1,B   0)                  1.5899         0.402225   
      2. B(B   2,B   1)                  1.5898         0.402305   
      3. B(B   3,B   2)                  1.5900         0.402103   
      4. B(B   4,B   3)                  1.5899         0.402223   
      5. B(B   5,B   4)                  1.5898         0.402304   
      6. B(B   5,B   0)                  1.5900         0.402106   
      7. B(B   6,B   0)                  1.7240         0.245753   
      8. B(B   6,B   1)                  1.7240         0.245715   
      9. B(B   7,B   6)                  1.5898         0.402322   
     10. B(B   7,B   2)                  1.7239         0.245810   
     11. B(B   7,B   1)                  1.7240         0.245713   
     12. B(B   8,B   7)                  1.5899         0.402227   
     13. B(B   8,B   3)                  1.7239         0.245827   
     14. B(B   8,B   2)                  1.7239         0.245864   
     15. B(B   9,B   3)                  1.7239         0.245829   
     16. B(B   9,B   8)                  1.5899         0.402190   
     17. B(B   9,B   4)                  1.7240         0.245783   
     18. B(B  10,B   9)                  1.5898         0.402337   
     19. B(B  10,B   5)                  1.7238         0.245903   
     20. B(B  10,B   4)                  1.7240         0.245784   
     21. B(B  11,B  10)                  1.5899         0.402259   
     22. B(B  11,B   6)                  1.5899         0.402192   
     23. B(B  11,B   5)                  1.7239         0.245813   
     24. B(B  11,B   0)                  1.7238         0.245911   
     25. A(B   1,B   0,B   5)          120.0001         0.384992   
     26. A(B   6,B   0,B  11)           54.9206         0.325872   
     27. A(B   5,B   0,B  11)           62.5415         0.353798   
     28. A(B   1,B   0,B   6)           62.5434         0.353777   
     29. A(B   1,B   0,B  11)          109.7237         0.353815   
     30. A(B   5,B   0,B   6)          109.7397         0.353759   
     31. A(B   0,B   1,B   6)           62.5407         0.353767   
     32. A(B   0,B   1,B   2)          120.0028         0.385026   
     33. A(B   2,B   1,B   7)           62.5391         0.353779   
     34. A(B   6,B   1,B   7)           54.9128         0.325821   
     35. A(B   2,B   1,B   6)          109.7289         0.353779   
     36. A(B   0,B   1,B   7)          109.7182         0.353767   
     37. A(B   1,B   2,B   3)          120.0074         0.385005   
     38. A(B   7,B   2,B   8)           54.9199         0.325874   
     39. A(B   1,B   2,B   7)           62.5459         0.353803   
     40. A(B   3,B   2,B   8)           62.5396         0.353786   
     41. A(B   3,B   2,B   7)          109.7285         0.353773   
     42. A(B   1,B   2,B   8)          109.7380         0.353816   
     43. A(B   2,B   3,B   8)           62.5370         0.353777   
     44. A(B   4,B   3,B   9)           62.5422         0.353795   
     45. A(B   4,B   3,B   8)          109.7303         0.353795   
     46. A(B   2,B   3,B   4)          119.9795         0.384991   
     47. A(B   8,B   3,B   9)           54.9205         0.325870   
     48. A(B   2,B   3,B   9)          109.7175         0.353777   
     49. A(B   5,B   4,B  10)           62.5367         0.353796   
     50. A(B   9,B   4,B  10)           54.9150         0.325851   
     51. A(B   3,B   4,B  10)          109.7353         0.353784   
     52. A(B   3,B   4,B   5)          120.0233         0.385025   
     53. A(B   5,B   4,B   9)          109.7217         0.353796   
     54. A(B   3,B   4,B   9)           62.5390         0.353784   
     55. A(B  10,B   5,B  11)           54.9199         0.325883   
     56. A(B   0,B   5,B  11)           62.5346         0.353774   
     57. A(B   0,B   5,B   4)          119.9869         0.385005   
     58. A(B   4,B   5,B  10)           62.5451         0.353825   
     59. A(B   0,B   5,B  10)          109.7303         0.353796   
     60. A(B   4,B   5,B  11)          109.7205         0.353803   
     61. A(B   0,B   6,B  11)           62.5341         0.353772   
     62. A(B   1,B   6,B  11)          109.7117         0.353763   
     63. A(B   0,B   6,B   1)           54.9160         0.325829   
     64. A(B   1,B   6,B   7)           62.5437         0.353782   
     65. A(B   0,B   6,B   7)          109.7235         0.353791   
     66. A(B   7,B   6,B  11)          119.9716         0.385023   
     67. A(B   6,B   7,B   8)          120.0215         0.385029   
     68. A(B   2,B   7,B   8)           62.5382         0.353791   
     69. A(B   1,B   7,B   8)          109.7270         0.353767   
     70. A(B   2,B   7,B   6)          109.7348         0.353805   
     71. A(B   1,B   7,B   6)           62.5436         0.353782   
     72. A(B   1,B   7,B   2)           54.9150         0.325841   
     73. A(B   2,B   8,B   7)           62.5420         0.353804   
     74. A(B   2,B   8,B   3)           54.9234         0.325878   
     75. A(B   7,B   8,B   9)          119.9815         0.385007   
     76. A(B   3,B   8,B   9)           62.5397         0.353790   
     77. A(B   2,B   8,B   9)          109.7223         0.353799   
     78. A(B   3,B   8,B   7)          109.7335         0.353795   
     79. A(B   8,B   9,B  10)          120.0212         0.385025   
     80. A(B   4,B   9,B  10)           62.5424         0.353801   
     81. A(B   3,B   9,B  10)          109.7416         0.353812   
     82. A(B   4,B   9,B   8)          109.7268         0.353779   
     83. A(B   3,B   9,B   8)           62.5398         0.353790   
     84. A(B   3,B   9,B   4)           54.9188         0.325861   
     85. A(B   5,B  10,B   9)          109.7295         0.353830   
     86. A(B   4,B  10,B   9)           62.5425         0.353801   
     87. A(B   4,B  10,B   5)           54.9182         0.325877   
     88. A(B   9,B  10,B  11)          119.9728         0.385036   
     89. A(B   5,B  10,B  11)           62.5432         0.353818   
     90. A(B   4,B  10,B  11)          109.7174         0.353789   
     91. A(B   0,B  11,B   5)           54.9239         0.325885   
     92. A(B   6,B  11,B  10)          120.0314         0.385012   
     93. A(B   5,B  11,B  10)           62.5369         0.353797   
     94. A(B   0,B  11,B  10)          109.7358         0.353821   
     95. A(B   5,B  11,B   6)          109.7458         0.353787   
     96. A(B   0,B  11,B   6)           62.5453         0.353811   
     97. D(B   2,B   1,B   0,B  11)    -68.9679         0.010000   
     98. D(B   2,B   1,B   0,B   5)      0.0159         0.010000   
     99. D(B   6,B   1,B   0,B  11)     29.0356         0.010000   
    100. D(B   2,B   1,B   0,B   6)    -98.0035         0.010000   
    101. D(B   7,B   1,B   0,B   5)     68.9946         0.010000   
    102. D(B   6,B   1,B   0,B   5)     98.0194         0.010000   
    103. D(B   8,B   2,B   1,B   0)     68.9753         0.010000   
    104. D(B   3,B   2,B   1,B   6)    -69.0000         0.010000   
    105. D(B   3,B   2,B   1,B   0)     -0.0143         0.010000   
    106. D(B   7,B   2,B   1,B   0)     97.9893         0.010000   
    107. D(B   7,B   2,B   1,B   6)     29.0036         0.010000   
    108. D(B   3,B   2,B   1,B   7)    -98.0036         0.010000   
    109. D(B   4,B   3,B   2,B   8)    -98.0137         0.010000   
    110. D(B   8,B   3,B   2,B   1)     98.0121         0.010000   
    111. D(B   4,B   3,B   2,B   7)    -68.9940         0.010000   
    112. D(B   4,B   3,B   2,B   1)     -0.0016         0.010000   
    113. D(B   9,B   3,B   2,B   1)     68.9766         0.010000   
    114. D(B   8,B   3,B   2,B   7)     29.0197         0.010000   
    115. D(B   5,B   4,B   3,B   9)    -97.9846         0.010000   
    116. D(B   9,B   4,B   3,B   2)     98.0005         0.010000   
    117. D(B   5,B   4,B   3,B   2)      0.0159         0.010000   
    118. D(B   5,B   4,B   3,B   8)    -68.9624         0.010000   
    119. D(B   9,B   4,B   3,B   8)     29.0221         0.010000   
    120. D(B  10,B   4,B   3,B   2)     69.0034         0.010000   
    121. D(B   4,B   5,B   0,B  11)     97.9970         0.010000   
    122. D(B  10,B   5,B   0,B   6)      0.0030         0.010000   
    123. D(B  10,B   5,B   0,B  11)     29.0080         0.010000   
    124. D(B   4,B   5,B   0,B   6)     68.9920         0.010000   
    125. D(B   4,B   5,B   0,B   1)     -0.0016         0.010000   
    126. D(B   0,B   5,B   4,B   3)     -0.0143         0.010000   
    127. D(B  10,B   5,B   0,B   1)    -68.9906         0.010000   
    128. D(B  10,B   5,B   4,B   9)     29.0167         0.010000   
    129. D(B   0,B   5,B   4,B  10)    -98.0145         0.010000   
    130. D(B  10,B   5,B   4,B   3)     98.0003         0.010000   
    131. D(B  11,B   5,B   4,B   3)     68.9577         0.010000   
    132. D(B   0,B   5,B   4,B   9)    -68.9979         0.010000   
    133. D(B  11,B   6,B   1,B   2)     82.6014         0.010000   
    134. D(B   7,B   6,B   1,B   2)    -31.7206         0.010000   
    135. D(B   7,B   6,B   1,B   0)   -146.0706         0.010000   
    136. D(B   0,B   6,B   1,B   7)    146.0706         0.010000   
    137. D(B   0,B   6,B   1,B   2)    114.3500         0.010000   
    138. D(B  11,B   6,B   0,B   1)    146.0626         0.010000   
    139. D(B   7,B   6,B   0,B   1)     31.7469         0.010000   
    140. D(B   1,B   6,B   0,B  11)   -146.0626         0.010000   
    141. D(B   1,B   6,B   0,B   5)   -114.3429         0.010000   
    142. D(B  11,B   6,B   1,B   0)    -31.7487         0.010000   
    143. D(B   7,B   6,B   0,B   5)    -82.5960         0.010000   
    144. D(B   7,B   6,B   0,B  11)   -114.3156         0.010000   
    145. D(B   1,B   7,B   6,B  11)    -97.9975         0.010000   
    146. D(B   1,B   7,B   6,B   0)    -29.0271         0.010000   
    147. D(B   8,B   7,B   2,B   1)   -146.0919         0.010000   
    148. D(B   1,B   7,B   2,B   3)    114.3562         0.010000   
    149. D(B   1,B   7,B   2,B   8)    146.0919         0.010000   
    150. D(B   6,B   7,B   2,B   3)     82.6329         0.010000   
    151. D(B   8,B   7,B   1,B   2)     31.7264         0.010000   
    152. D(B   6,B   7,B   2,B   8)    114.3685         0.010000   
    153. D(B   8,B   7,B   1,B   0)    -82.6277         0.010000   
    154. D(B   6,B   7,B   1,B   2)    146.0989         0.010000   
    155. D(B   6,B   7,B   2,B   1)    -31.7234         0.010000   
    156. D(B   2,B   7,B   1,B   0)   -114.3542         0.010000   
    157. D(B   2,B   7,B   1,B   6)   -146.0989         0.010000   
    158. D(B   2,B   7,B   6,B   0)     -0.0215         0.010000   
    159. D(B   6,B   7,B   1,B   0)     31.7448         0.010000   
    160. D(B   8,B   7,B   6,B   0)     68.9672         0.010000   
    161. D(B   2,B   7,B   6,B  11)    -68.9919         0.010000   
    162. D(B   2,B   7,B   6,B   1)     29.0056         0.010000   
    163. D(B   9,B   8,B   7,B   1)     68.9954         0.010000   
    164. D(B   3,B   8,B   7,B   6)    -68.9791         0.010000   
    165. D(B   3,B   8,B   7,B   2)     29.0220         0.010000   
    166. D(B   3,B   8,B   7,B   1)      0.0121         0.010000   
    167. D(B   2,B   8,B   7,B   6)    -98.0011         0.010000   
    168. D(B   9,B   8,B   3,B   2)   -146.0613         0.010000   
    169. D(B   7,B   8,B   3,B   9)    114.3238         0.010000   
    170. D(B   7,B   8,B   3,B   4)     82.5848         0.010000   
    171. D(B   7,B   8,B   3,B   2)    -31.7375         0.010000   
    172. D(B   2,B   8,B   3,B   9)    146.0613         0.010000   
    173. D(B   2,B   8,B   3,B   4)    114.3223         0.010000   
    174. D(B   2,B   8,B   7,B   1)    -29.0099         0.010000   
    175. D(B   9,B   8,B   2,B   3)     31.7540         0.010000   
    176. D(B   7,B   8,B   2,B   1)     31.7313         0.010000   
    177. D(B   3,B   8,B   2,B   7)   -146.0827         0.010000   
    178. D(B   3,B   8,B   2,B   1)   -114.3514         0.010000   
    179. D(B   9,B   8,B   2,B   1)    -82.5974         0.010000   
    180. D(B   7,B   8,B   2,B   3)    146.0827         0.010000   
    181. D(B  10,B   9,B   8,B   2)     68.9730         0.010000   
    182. D(B   4,B   9,B   8,B   7)    -68.9973         0.010000   
    183. D(B   4,B   9,B   8,B   3)     29.0208         0.010000   
    184. D(B   4,B   9,B   8,B   2)     -0.0167         0.010000   
    185. D(B   3,B   9,B   8,B   7)    -98.0181         0.010000   
    186. D(B   3,B   9,B   8,B   2)    -29.0375         0.010000   
    187. D(B  10,B   9,B   4,B   3)   -146.1095         0.010000   
    188. D(B   8,B   9,B   4,B  10)    114.3721         0.010000   
    189. D(B   8,B   9,B   4,B   5)     82.6386         0.010000   
    190. D(B   8,B   9,B   4,B   3)    -31.7374         0.010000   
    191. D(B   3,B   9,B   4,B  10)    146.1095         0.010000   
    192. D(B   3,B   9,B   4,B   5)    114.3760         0.010000   
    193. D(B  10,B   9,B   3,B   4)     31.7148         0.010000   
    194. D(B  10,B   9,B   3,B   2)    -82.6135         0.010000   
    195. D(B   8,B   9,B   3,B   4)    146.0805         0.010000   
    196. D(B   8,B   9,B   3,B   2)     31.7521         0.010000   
    197. D(B   4,B   9,B   3,B   8)   -146.0805         0.010000   
    198. D(B   4,B   9,B   3,B   2)   -114.3283         0.010000   
    199. D(B  11,B  10,B   9,B   3)     69.0037         0.010000   
    200. D(B   5,B  10,B   9,B   4)     29.0194         0.010000   
    201. D(B   5,B  10,B   9,B   3)      0.0197         0.010000   
    202. D(B   4,B  10,B   9,B   8)    -97.9935         0.010000   
    203. D(B   4,B  10,B   9,B   3)    -28.9997         0.010000   
    204. D(B  11,B  10,B   5,B   0)    -31.7210         0.010000   
    205. D(B   9,B  10,B   5,B  11)    114.3160         0.010000   
    206. D(B   9,B  10,B   5,B   4)    -31.7370         0.010000   
    207. D(B   9,B  10,B   5,B   0)     82.5950         0.010000   
    208. D(B   4,B  10,B   5,B  11)    146.0531         0.010000   
    209. D(B   4,B  10,B   5,B   0)    114.3320         0.010000   
    210. D(B  11,B  10,B   4,B   5)     31.7616         0.010000   
    211. D(B  11,B  10,B   4,B   3)    -82.6085         0.010000   
    212. D(B   9,B  10,B   4,B   5)    146.0824         0.010000   
    213. D(B   9,B  10,B   4,B   3)     31.7123         0.010000   
    214. D(B   5,B  10,B   9,B   8)    -68.9741         0.010000   
    215. D(B   5,B  10,B   4,B   9)   -146.0824         0.010000   
    216. D(B   5,B  10,B   4,B   3)   -114.3701         0.010000   
    217. D(B  10,B  11,B   0,B   5)    -31.7230         0.010000   
    218. D(B  10,B  11,B   0,B   1)     82.6262         0.010000   
    219. D(B   6,B  11,B   0,B   5)   -146.1035         0.010000   
    220. D(B   6,B  11,B   0,B   1)    -31.7543         0.010000   
    221. D(B   5,B  11,B   0,B   6)    146.1035         0.010000   
    222. D(B   0,B  11,B   5,B   4)   -114.3344         0.010000   
    223. D(B   5,B  11,B   0,B   1)    114.3491         0.010000   
    224. D(B   6,B  11,B  10,B   4)     68.9685         0.010000   
    225. D(B   5,B  11,B  10,B   4)    -29.0413         0.010000   
    226. D(B   0,B  11,B  10,B   9)    -69.0081         0.010000   
    227. D(B   0,B  11,B  10,B   5)     29.0107         0.010000   
    228. D(B  10,B  11,B   6,B   0)    -98.0017         0.010000   
    229. D(B   5,B  11,B   6,B   7)     68.9997         0.010000   
    230. D(B   5,B  11,B   6,B   1)      0.0238         0.010000   
    231. D(B   5,B  11,B   6,B   0)    -29.0076         0.010000   
    232. D(B   0,B  11,B   6,B   7)     98.0073         0.010000   
    233. D(B   0,B  11,B   6,B   1)     29.0314         0.010000   
    234. D(B   0,B  11,B  10,B   4)     -0.0306         0.010000   
    235. D(B  10,B  11,B   5,B   0)    146.0973         0.010000   
    236. D(B   6,B  11,B   5,B  10)   -114.3750         0.010000   
    237. D(B   6,B  11,B   5,B   4)    -82.6121         0.010000   
    238. D(B   5,B  11,B  10,B   9)    -98.0187         0.010000   
    239. D(B   6,B  11,B   5,B   0)     31.7222         0.010000   
    240. D(B   0,B  11,B   5,B  10)   -146.0973         0.010000   
    -----------------------------------------------------------------

Number of atoms                         .... 12
Number of degrees of freedom            .... 240


         *************************************************************
         *                GEOMETRY OPTIMIZATION CYCLE   1            *
         *************************************************************
---------------------------------
CARTESIAN COORDINATES (ANGSTROEM)
---------------------------------
  B      1.589939    0.000031   -0.757260
  B      0.794918    1.376867   -0.757412
  B     -0.794913    1.376855   -0.757317
  B     -1.590065   -0.000001   -0.757413
  B     -0.794796   -1.376695   -0.757643
  B      0.795036   -1.376966   -0.757395
  B      1.376999    0.795139    0.757545
  B     -0.000025    1.589703    0.757544
  B     -1.377004    0.794932    0.757373
  B     -1.376689   -0.794977    0.757304
  B     -0.000010   -1.590118    0.757224
  B      1.376610   -0.794769    0.757452

----------------------------
CARTESIAN COORDINATES (A.U.)
----------------------------
  NO LB      ZA    FRAG     MASS         X           Y           Z
   0 B     5.0000    0    10.810    3.004549    0.000059   -1.431014
   1 B     5.0000    0    10.810    1.502177    2.601902   -1.431301
   2 B     5.0000    0    10.810   -1.502168    2.601879   -1.431122
   3 B     5.0000    0    10.810   -3.004787   -0.000002   -1.431303
   4 B     5.0000    0    10.810   -1.501947   -2.601577   -1.431738
   5 B     5.0000    0    10.810    1.502400   -2.602089   -1.431269
   6 B     5.0000    0    10.810    2.602151    1.502595    1.431553
   7 B     5.0000    0    10.810   -0.000047    3.004103    1.431551
   8 B     5.0000    0    10.810   -2.602160    1.502204    1.431228
   9 B     5.0000    0    10.810   -2.601565   -1.502289    1.431097
  10 B     5.0000    0    10.810   -0.000019   -3.004888    1.430946
  11 B     5.0000    0    10.810    2.601416   -1.501896    1.431377

--------------------------------
INTERNAL COORDINATES (ANGSTROEM)
--------------------------------
 B      0   0   0     0.000000000000     0.00000000     0.00000000
 B      1   0   0     1.589885462680     0.00000000     0.00000000
 B      2   1   0     1.589831002884   120.00282412     0.00000000
 B      3   2   1     1.589968288066   120.00741700     0.00000000
 B      4   3   2     1.589886538372   119.97945948     0.00000000
 B      5   4   3     1.589832042440   120.02332011     0.00000000
 B      1   2   3     1.723999525316    62.54336429   261.99654221
 B      7   1   2     1.589819815788   109.72351794    31.74694022
 B      8   7   1     1.589884315956   120.02151544    68.96717422
 B      9   8   7     1.589909032702   119.98152648     0.00000000
 B     10   9   8     1.589809512276   120.02118352     0.00000000
 B     11  10   9     1.589862480904   119.97278116     0.00000000

---------------------------
INTERNAL COORDINATES (A.U.)
---------------------------
 B      0   0   0     0.000000000000     0.00000000     0.00000000
 B      1   0   0     3.004448108768     0.00000000     0.00000000
 B      2   1   0     3.004345194667   120.00282412     0.00000000
 B      3   2   1     3.004604626065   120.00741700     0.00000000
 B      4   3   2     3.004450141531   119.97945948     0.00000000
 B      5   4   3     3.004347159144   120.02332011     0.00000000
 B      1   2   3     3.257886957857    62.54336429   261.99654221
 B      7   1   2     3.004324054121   109.72351794    31.74694022
 B      8   7   1     3.004445941774   120.02151544    68.96717422
 B      9   8   7     3.004492649654   119.98152648     0.00000000
 B     10   9   8     3.004304583304   120.02118352     0.00000000
 B     11  10   9     3.004404679504   119.97278116     0.00000000

---------------------
BASIS SET INFORMATION
---------------------
There are 1 groups of distinct atoms

 Group   1 Type B   : 11s6p1d contracted to 5s3p1d pattern {62111/411/1}

Atom   0B    basis set group =>   1
Atom   1B    basis set group =>   1
Atom   2B    basis set group =>   1
Atom   3B    basis set group =>   1
Atom   4B    basis set group =>   1
Atom   5B    basis set group =>   1
Atom   6B    basis set group =>   1
Atom   7B    basis set group =>   1
Atom   8B    basis set group =>   1
Atom   9B    basis set group =>   1
Atom  10B    basis set group =>   1
Atom  11B    basis set group =>   1
---------------------------------
AUXILIARY/J BASIS SET INFORMATION
---------------------------------
There are 1 groups of distinct atoms

 Group   1 Type B   : 8s3p3d contracted to 6s3p3d pattern {311111/111/111}

Atom   0B    basis set group =>   1
Atom   1B    basis set group =>   1
Atom   2B    basis set group =>   1
Atom   3B    basis set group =>   1
Atom   4B    basis set group =>   1
Atom   5B    basis set group =>   1
Atom   6B    basis set group =>   1
Atom   7B    basis set group =>   1
Atom   8B    basis set group =>   1
Atom   9B    basis set group =>   1
Atom  10B    basis set group =>   1
Atom  11B    basis set group =>   1


           ************************************************************
           *        Program running with 8 parallel MPI-processes     *
           *              working on a common directory               *
           ************************************************************
------------------------------------------------------------------------------
                             ORCA STARTUP CALCULATIONS
                           -- RI-GTO INTEGRALS CHOSEN --
------------------------------------------------------------------------------
------------------------------------------------------------------------------
                   ___                                                        
                  /   \      - P O W E R E D   B Y -                         
                 /     \                                                     
                 |  |  |   _    _      __       _____    __    __             
                 |  |  |  | |  | |    /  \     |  _  \  |  |  /  |          
                  \  \/   | |  | |   /    \    | | | |  |  | /  /          
                 / \  \   | |__| |  /  /\  \   | |_| |  |  |/  /          
                |  |  |   |  __  | /  /__\  \  |    /   |      \           
                |  |  |   | |  | | |   __   |  |    \   |  |\   \          
                \     /   | |  | | |  |  |  |  | |\  \  |  | \   \       
                 \___/    |_|  |_| |__|  |__|  |_| \__\ |__|  \__/        
                                                                              
                      - O R C A' S   B I G   F R I E N D -                    
                                      &                                       
                       - I N T E G R A L  F E E D E R -                       
                                                                              
 v1 FN, 2020, v2 2021, v3 2022-2024                                           
------------------------------------------------------------------------------


----------------------
SHARK INTEGRAL PACKAGE
----------------------

Number of atoms                             ...     12
Number of basis functions                   ...    228
Number of shells                            ...    108
Maximum angular momentum                    ...      2
Integral batch strategy                     ... SHARK/LIBINT Hybrid
RI-J (if used) integral strategy            ... SPLIT-RIJ (Revised 2003 algorithm where possible)
Printlevel                                  ...      1
Contraction scheme used                     ... SEGMENTED contraction
Prescreening option                         ... SCHWARTZ
   Thresh                                   ... 2.500e-11
   Tcut                                     ... 2.500e-12
   Tpresel                                  ... 2.500e-12 
Coulomb Range Separation                    ... NOT USED
Exchange Range Separation                   ... NOT USED
Multipole approximations                    ... NOT USED
Finite Nucleus Model                        ... NOT USED
CABS basis                                  ... NOT available
Auxiliary Coulomb fitting basis             ... AVAILABLE
   # of basis functions in Aux-J            ...    360
   # of shells in Aux-J                     ...    144
   Maximum angular momentum in Aux-J        ...      2
Auxiliary J/K fitting basis                 ... NOT available
Auxiliary Correlation fitting basis         ... NOT available
Auxiliary 'external' fitting basis          ... NOT available

Checking pre-screening integrals            ... done (  0.0 sec) Dimension = 108
   => SHARK Basis and OBASIS are compatible. Storing Pre-screening
Shell pair information
Shell pair cut-off parameter TPreSel        ...   2.5e-12
Total number of shell pairs                 ...      5886
Shell pairs after pre-screening             ...      5718
Total number of primitive shell pairs       ...     23700
Primitive shell pairs kept                  ...     16920
          la=0 lb=0:   1662 shell pairs
          la=1 lb=0:   2160 shell pairs
          la=1 lb=1:    666 shell pairs
          la=2 lb=0:    720 shell pairs
          la=2 lb=1:    432 shell pairs
          la=2 lb=2:     78 shell pairs

Checking whether 4 symmetric matrices of dimension 228 fit in memory
:Max Core in MB      =   2000.00
 MB in use           =      8.98
 MB left             =   1991.02
 MB needed           =      0.80
 Data fit in memory  = YES
Calculating RI/J V-Matrix + Cholesky decomp.... done (  0.0 sec)
Calculating Nuclear repulsion               ... done (  0.0 sec) ENN=    379.465230596688 Eh

Diagonalization of the overlap matrix:
Smallest eigenvalue                        ... 6.306e-06
Time for diagonalization                   ...    0.019 sec
Threshold for overlap eigenvalues          ... 1.000e-07
Number of eigenvalues below threshold      ... 0
Time for construction of square roots      ...    0.005 sec
Total time needed                          ...    0.028 sec

-------------------
DFT GRID GENERATION
-------------------

General Integration Accuracy     IntAcc      ... 4.388
Radial Grid Type                 RadialGrid  ... OptM3 with GC (2021)
Angular Grid (max. ang.)         AngularGrid ... 4 (Lebedev-302)
Angular grid pruning method      GridPruning ... 4 (adaptive)
Weight generation scheme         WeightScheme... mBecke (2022)
Basis function cutoff            BFCut       ... 1.0000e-11
Integration weight cutoff        WCut        ... 1.0000e-14
Partially contracted basis set               ... off
Rotationally invariant grid construction     ... off
Angular grids for H and He will be reduced by one unit

Total number of grid points                  ...    70112
Total number of batches                      ...     1103
Average number of points per batch           ...       63
Average number of grid points per atom       ...     5843
Grids setup in   0.8 sec
Initializing property integral containers    ... done (  0.0 sec)

SHARK setup successfully completed in   1.2 seconds

Maximum memory used throughout the entire STARTUP-calculation: 22.1 MB


           ************************************************************
           *        Program running with 8 parallel MPI-processes     *
           *              working on a common directory               *
           ************************************************************
-------------------------------------------------------------------------------
                                 ORCA GUESS
                   Start orbitals & Density for SCF / CASSCF
-------------------------------------------------------------------------------

------------
SCF SETTINGS
------------
Hamiltonian:
 Density Functional     Method          .... DFT(GTOs)
  Functional kind                       .... Exchange
  Functional name                       .... Re-regularized SCAN exchange by Furness et al
  Functional family                     .... MGGA
  Functional refs                              
    [ 0] J. W. Furness, A. D. Kaplan, J. Ning, J. P. Perdew, and J. Sun.,  J. Phys. Chem. Lett. 11, 8208-8215 (2020), doi: 10.1021/acs.jpclett.0c02405
    [ 1] J. W. Furness, A. D. Kaplan, J. Ning, J. P. Perdew, and J. Sun.,  J. Phys. Chem. Lett. 11, 9248-9248 (2020), doi: 10.1021/acs.jpclett.0c03077
  Functional external parameters        .... 6
    Parameter  0 _c1        =  6.670000e-01 : c1 parameter        
    Parameter  1 _c2        =  8.000000e-01 : c2 parameter        
    Parameter  2 _d         =  1.240000e+00 : d parameter         
    Parameter  3 _k1        =  6.500000e-02 : k1 parameter        
    Parameter  4 _eta       =  1.000000e-03 : eta parameter       
    Parameter  5 _dp2       =  3.610000e-01 : dp2 parameter       
  Functional kind                       .... Correlation
  Functional name                       .... Re-regularized SCAN correlation by Furness et al
  Functional family                     .... MGGA
  Functional refs                              
    [ 0] J. W. Furness, A. D. Kaplan, J. Ning, J. P. Perdew, and J. Sun.,  J. Phys. Chem. Lett. 11, 8208-8215 (2020), doi: 10.1021/acs.jpclett.0c02405
    [ 1] J. W. Furness, A. D. Kaplan, J. Ning, J. P. Perdew, and J. Sun.,  J. Phys. Chem. Lett. 11, 9248-9248 (2020), doi: 10.1021/acs.jpclett.0c03077
  Functional external parameters        .... 1
    Parameter  0 _eta       =  1.000000e-03 : Regularization parameter
 Gradients option       PostSCFGGA      .... off
 RI-approximation to the Coulomb term is turned on
   Number of AuxJ basis functions       .... 360


General Settings:
 Integral files         IntName         .... double_ring_6_6_d1.90_m1_r2scan
 Hartree-Fock type      HFTyp           .... RHF
 Total Charge           Charge          ....    0
 Multiplicity           Mult            ....    1
 Number of Electrons    NEL             ....   60
 Basis Dimension        Dim             ....  228
 Nuclear Repulsion      ENuc            ....    379.4652305967 Eh

Convergence Acceleration:
 AO-DIIS                CNVDIIS         .... on
   Start iteration      DIISMaxIt       ....    12
   Startup error        DIISStart       ....  0.200000
   # of expansion vecs  DIISMaxEq       ....     5
   Bias factor          DIISBfac        ....   1.050
   Max. coefficient     DIISMaxC        ....  10.000
 MO-DIIS                CNVKDIIS        .... off
 Trust-Rad. Augm. Hess. CNVTRAH         .... auto
   Auto Start mean grad. ratio tolernc. ....  1.125000
   Auto Start start iteration           ....    50
   Auto Start num. interpolation iter.  ....    10
   Max. Number of Micro iterations      ....    24
   Max. Number of Macro iterations      .... Maxiter - #DIIS iter
   Number of Davidson start vectors     ....     2
   Converg. threshold    (grad. norm)   ....   1.000e-05
   Grad. Scal. Fac. for Micro threshold ....   0.100
   Minimum threshold for Micro iter.    ....   1.000e-02
   NR start threshold (gradient norm)   ....   1.000e-04
   Initial trust radius                 ....   0.400
   Minimum AH scaling param. (alpha)    ....   1.000
   Maximum AH scaling param. (alpha)    .... 1000.000
   Quad. conv. algorithm                .... NR
   White noise on init. David. guess    .... on
   Maximum white noise                  ....   0.010
   Pseudo random numbers                .... off
   Inactive MOs                         .... canonical
   Orbital update algorithm             .... Taylor
   Preconditioner                       .... Diag
   Full preconditioner red. dimension   ....   250
   COSX micro iterations for RIJONX calc.... off
 SOSCF                 CNVSOSCF           .... on
   Start iteration     SOSCFMaxIt         ....   150
   Startup grad/error  SOSCFStart         ....  0.003300
   Hessian update      SOSCFHessUp        .... L-BFGS
   Autom. constraints  SOSCFAutoConstrain .... off
 Level Shifting         CNVShift        .... on
   Level shift para.    LevelShift      ....    0.2500
   Turn off err/grad.   ShiftErr        ....    0.0010
 Zerner damping         CNVZerner       .... off
 Static damping         CNVDamp         .... on
   Fraction old density DampFac         ....    0.7000
   Max. Damping (<1)    DampMax         ....    0.9800
   Min. Damping (>=0)   DampMin         ....    0.0000
   Turn off err/grad.   DampErr         ....    0.1000

SCF Procedure:
 Maximum # iterations   MaxIter         ....   125
 SCF integral mode      SCFMode         .... Direct
   Integral package                     .... SHARK and LIBINT hybrid scheme
 Reset frequency        DirectResetFreq ....    20
 Integral Threshold     Thresh          ....  2.500e-11 Eh
 Primitive CutOff       TCut            ....  2.500e-12 Eh

Convergence Tolerance:
 Convergence Check Mode ConvCheckMode   .... Total+1el-Energy
 Convergence forced     ConvForced      .... 0
 Energy Change          TolE            ....  1.000e-08 Eh
 1-El. energy change                    ....  1.000e-05 Eh
 Orbital Gradient       TolG            ....  1.000e-05
 Orbital Rotation angle TolX            ....  1.000e-05
 DIIS Error             TolErr          ....  5.000e-07

------------------------------
INITIAL GUESS: MODEL POTENTIAL
------------------------------
Loading Hartree-Fock densities                     ... done
Calculating cut-offs                               ... done
Initializing the effective Hamiltonian             ... done
Setting up the integral package (SHARK)            ... done
Starting the Coulomb interaction                   ... done (   0.1 sec)
Making the grid                                    ... done (   0.2 sec)
Mapping shells                                     ... done
Starting the XC term evaluation                    ... done (   0.1 sec)
  promolecular density results
     # of electrons  =     60.009876387
     EX              =    -45.850792101
     EC              =     -1.907244771
     EX+EC           =    -47.758036872
Transforming the Hamiltonian                       ... done (   0.0 sec)
Diagonalizing the Hamiltonian                      ... done (   0.0 sec)
Back transforming the eigenvectors                 ... done (   0.0 sec)
Now organizing SCF variables                       ... done
                      ------------------
                      INITIAL GUESS DONE (   0.4 sec)
                      ------------------
             **** ENERGY FILE WAS UPDATED (double_ring_6_6_d1.90_m1_r2scan.en.tmp) ****
Finished Guess after   1.0 sec
Maximum memory used throughout the entire GUESS-calculation: 12.4 MB


           ************************************************************
           *        Program running with 8 parallel MPI-processes     *
           *              working on a common directory               *
           ************************************************************

-------------------------------------------------------------------------------------------
                                      ORCA LEAN-SCF
                              memory conserving SCF solver
-------------------------------------------------------------------------------------------

----------------------------------------D-I-I-S--------------------------------------------
Iteration    Energy (Eh)           Delta-E    RMSDP     MaxDP     DIISErr   Damp  Time(sec)
-------------------------------------------------------------------------------------------
               ***  Starting incremental Fock matrix formation  ***
    1    -297.1907437009699038     0.00e+00  5.78e-02  2.54e-01  1.59e-01  0.700   0.7
Warning: op=0 Small HOMO/LUMO gap (   0.049) - skipping pre-diagonalization
         Will do a full diagonalization
    2    -297.5034904117671317    -3.13e-01  4.11e-02  1.90e-01  6.67e-02  0.700   0.7
                               ***Turning on AO-DIIS***
    3    -297.6045638728330118    -1.01e-01  5.19e-02  4.83e-01  1.56e-02  0.700   0.6
    4    -297.6595407709049255    -5.50e-02  1.39e-01  1.31e+00  1.08e-02  0.000   0.8
    5    -297.7955805421336777    -1.36e-01  5.99e-03  2.55e-02  1.18e-02  0.000   0.8
    6    -297.8010234900216915    -5.44e-03  9.37e-04  3.65e-03  4.27e-03  0.000   0.7
                              *** Initializing SOSCF ***
---------------------------------------S-O-S-C-F--------------------------------------
Iteration    Energy (Eh)           Delta-E    RMSDP     MaxDP     MaxGrad    Time(sec)
--------------------------------------------------------------------------------------
    7    -297.8017517184762823    -7.28e-04  7.25e-04  3.05e-03  1.58e-03     0.7
               *** Restarting incremental Fock matrix formation ***
    8    -297.8018641478852828    -1.12e-04  5.09e-04  1.73e-03  9.30e-04     0.8
    9    -297.8018580145534884     6.13e-06  1.00e-03  4.86e-03  1.09e-03     0.6
   10    -297.8018888932618324    -3.09e-05  6.06e-05  2.79e-04  3.58e-05     0.6
   11    -297.8018889357616104    -4.25e-08  1.57e-05  1.05e-04  1.42e-05     0.6
   12    -297.8018889394149369    -3.65e-09  1.05e-05  5.04e-05  2.35e-05     0.7
                 **** Energy Check signals convergence ****

               *****************************************************
               *                     SUCCESS                       *
               *           SCF CONVERGED AFTER  12 CYCLES          *
               *****************************************************

             **** ENERGY FILE WAS UPDATED (double_ring_6_6_d1.90_m1_r2scan.en.tmp) ****

----------------
TOTAL SCF ENERGY
----------------

Total Energy       :       -297.80188895206987 Eh           -8103.60138 eV

Components:
Nuclear Repulsion  :        379.46523059668795 Eh           10325.77388 eV
Electronic Energy  :       -677.26711954875782 Eh          -18429.37525 eV
One Electron Energy:      -1148.41083041310731 Eh          -31249.84741 eV
Two Electron Energy:        471.14371086434949 Eh           12820.47215 eV

Virial components:
Potential Energy   :       -594.46209333520324 Eh          -16176.13594 eV
Kinetic Energy     :        296.66020438313342 Eh            8072.53456 eV
Virial Ratio       :          2.00384845878236

DFT components:
N(Alpha)           :       29.999838853976 electrons
N(Beta)            :       29.999838853976 electrons
N(Total)           :       59.999677707951 electrons
E(X)               :      -46.895131389113 Eh       
E(C)               :       -1.902177383181 Eh       
E(XC)              :      -48.797308772294 Eh       

---------------
SCF CONVERGENCE
---------------

  Last Energy change         ...    3.6533e-09  Tolerance :   1.0000e-08
  Last MAX-Density change    ...    5.0422e-05  Tolerance :   1.0000e-07
  Last RMS-Density change    ...    1.0519e-05  Tolerance :   5.0000e-09
  Last DIIS Error            ...    1.5807e-03  Tolerance :   5.0000e-07
  Last Orbital Gradient      ...    2.3510e-05  Tolerance :   1.0000e-05
  Last Orbital Rotation      ...    2.5779e-05  Tolerance :   1.0000e-05


----------------
ORBITAL ENERGIES
----------------

  NO   OCC          E(Eh)            E(eV) 
   0   2.0000      -6.649704      -180.9476 
   1   2.0000      -6.649344      -180.9378 
   2   2.0000      -6.649340      -180.9377 
   3   2.0000      -6.649167      -180.9330 
   4   2.0000      -6.648875      -180.9251 
   5   2.0000      -6.648871      -180.9250 
   6   2.0000      -6.648568      -180.9167 
   7   2.0000      -6.648566      -180.9167 
   8   2.0000      -6.648287      -180.9091 
   9   2.0000      -6.648284      -180.9090 
  10   2.0000      -6.648088      -180.9037 
  11   2.0000      -6.648079      -180.9034 
  12   2.0000      -0.753352       -20.4998 
  13   2.0000      -0.657439       -17.8898 
  14   2.0000      -0.657434       -17.8897 
  15   2.0000      -0.514858       -14.0100 
  16   2.0000      -0.514845       -14.0097 
  17   2.0000      -0.473065       -12.8727 
  18   2.0000      -0.380200       -10.3458 
  19   2.0000      -0.380191       -10.3455 
  20   2.0000      -0.369815       -10.0632 
  21   2.0000      -0.369803       -10.0629 
  22   2.0000      -0.360178        -9.8009 
  23   2.0000      -0.305019        -8.3000 
  24   2.0000      -0.296113        -8.0576 
  25   2.0000      -0.296091        -8.0570 
  26   2.0000      -0.248606        -6.7649 
  27   2.0000      -0.248603        -6.7648 
  28   2.0000      -0.213219        -5.8020 
  29   2.0000      -0.213208        -5.8017 
  30   0.0000      -0.150968        -4.1080 
  31   0.0000      -0.099080        -2.6961 
  32   0.0000      -0.099058        -2.6955 
  33   0.0000      -0.076041        -2.0692 
  34   0.0000      -0.076036        -2.0691 
  35   0.0000      -0.066929        -1.8212 
  36   0.0000      -0.066919        -1.8210 
  37   0.0000      -0.059854        -1.6287 
  38   0.0000      -0.059836        -1.6282 
  39   0.0000      -0.019159        -0.5213 
  40   0.0000      -0.019116        -0.5202 
*Only the first 10 virtual orbitals were printed.

                    ********************************
                    * MULLIKEN POPULATION ANALYSIS *
                    ********************************

-----------------------
MULLIKEN ATOMIC CHARGES
-----------------------
   0 B :    0.000201
   1 B :   -0.000059
   2 B :    0.000070
   3 B :   -0.000121
   4 B :    0.000067
   5 B :   -0.000251
   6 B :   -0.000247
   7 B :   -0.000112
   8 B :    0.000247
   9 B :   -0.000063
  10 B :   -0.000042
  11 B :    0.000311
Sum of atomic charges:    0.0000000

--------------------------------
MULLIKEN REDUCED ORBITAL CHARGES
--------------------------------
  0 B s       :     3.034689  s :     3.034689
      pz      :     0.703501  p :     1.928520
      px      :     0.490884
      py      :     0.734135
      dz2     :     0.009873  d :     0.036591
      dxz     :     0.006289
      dyz     :     0.007627
      dx2y2   :     0.006349
      dxy     :     0.006453

  1 B s       :     3.034899  s :     3.034899
      pz      :     0.703387  p :     1.928569
      px      :     0.673383
      py      :     0.551799
      dz2     :     0.009872  d :     0.036590
      dxz     :     0.007294
      dyz     :     0.006624
      dx2y2   :     0.006427
      dxy     :     0.006373

  2 B s       :     3.034827  s :     3.034827
      pz      :     0.703493  p :     1.928510
      px      :     0.673325
      py      :     0.551692
      dz2     :     0.009873  d :     0.036593
      dxz     :     0.007294
      dyz     :     0.006624
      dx2y2   :     0.006428
      dxy     :     0.006375

  3 B s       :     3.034595  s :     3.034595
      pz      :     0.703508  p :     1.928937
      px      :     0.491300
      py      :     0.734130
      dz2     :     0.009873  d :     0.036589
      dxz     :     0.006289
      dyz     :     0.007626
      dx2y2   :     0.006348
      dxy     :     0.006453

  4 B s       :     3.035217  s :     3.035217
      pz      :     0.703420  p :     1.928120
      px      :     0.673267
      py      :     0.551433
      dz2     :     0.009874  d :     0.036596
      dxz     :     0.007296
      dyz     :     0.006625
      dx2y2   :     0.006427
      dxy     :     0.006375

  5 B s       :     3.034734  s :     3.034734
      pz      :     0.703518  p :     1.928924
      px      :     0.673423
      py      :     0.551983
      dz2     :     0.009873  d :     0.036593
      dxz     :     0.007293
      dyz     :     0.006625
      dx2y2   :     0.006427
      dxy     :     0.006375

  6 B s       :     3.034465  s :     3.034465
      pz      :     0.703442  p :     1.929194
      px      :     0.552252
      py      :     0.673500
      dz2     :     0.009871  d :     0.036587
      dxz     :     0.006624
      dyz     :     0.007292
      dx2y2   :     0.006427
      dxy     :     0.006373

  7 B s       :     3.035676  s :     3.035676
      pz      :     0.703416  p :     1.927843
      px      :     0.734146
      py      :     0.490281
      dz2     :     0.009873  d :     0.036593
      dxz     :     0.007630
      dyz     :     0.006288
      dx2y2   :     0.006349
      dxy     :     0.006453

  8 B s       :     3.033819  s :     3.033819
      pz      :     0.703510  p :     1.929343
      px      :     0.552286
      py      :     0.673546
      dz2     :     0.009873  d :     0.036591
      dxz     :     0.006625
      dyz     :     0.007292
      dx2y2   :     0.006427
      dxy     :     0.006374

  9 B s       :     3.035579  s :     3.035579
      pz      :     0.703442  p :     1.927888
      px      :     0.551259
      py      :     0.673187
      dz2     :     0.009873  d :     0.036596
      dxz     :     0.006625
      dyz     :     0.007294
      dx2y2   :     0.006428
      dxy     :     0.006375

 10 B s       :     3.034139  s :     3.034139
      pz      :     0.703459  p :     1.929313
      px      :     0.734158
      py      :     0.491695
      dz2     :     0.009873  d :     0.036591
      dxz     :     0.007626
      dyz     :     0.006291
      dx2y2   :     0.006348
      dxy     :     0.006453

 11 B s       :     3.035127  s :     3.035127
      pz      :     0.703487  p :     1.927964
      px      :     0.551312
      py      :     0.673166
      dz2     :     0.009874  d :     0.036598
      dxz     :     0.006625
      dyz     :     0.007295
      dx2y2   :     0.006428
      dxy     :     0.006376



                     *******************************
                     * LOEWDIN POPULATION ANALYSIS *
                     *******************************

----------------------
LOEWDIN ATOMIC CHARGES
----------------------
   0 B :   -0.000015
   1 B :    0.000038
   2 B :   -0.000015
   3 B :   -0.000057
   4 B :    0.000088
   5 B :   -0.000061
   6 B :   -0.000045
   7 B :    0.000077
   8 B :   -0.000055
   9 B :    0.000072
  10 B :   -0.000114
  11 B :    0.000086

-------------------------------
LOEWDIN REDUCED ORBITAL CHARGES
-------------------------------
  0 B s       :     2.690354  s :     2.690354
      pz      :     0.782992  p :     2.238308
      px      :     0.544847
      py      :     0.910469
      dz2     :     0.021091  d :     0.071352
      dxz     :     0.008259
      dyz     :     0.015803
      dx2y2   :     0.010209
      dxy     :     0.015991

  1 B s       :     2.690384  s :     2.690384
      pz      :     0.782910  p :     2.238227
      px      :     0.819080
      py      :     0.636238
      dz2     :     0.021089  d :     0.071351
      dxz     :     0.013922
      dyz     :     0.010143
      dx2y2   :     0.014545
      dxy     :     0.011652

  2 B s       :     2.690355  s :     2.690355
      pz      :     0.782992  p :     2.238303
      px      :     0.819071
      py      :     0.636239
      dz2     :     0.021092  d :     0.071357
      dxz     :     0.013920
      dyz     :     0.010143
      dx2y2   :     0.014546
      dxy     :     0.011655

  3 B s       :     2.690341  s :     2.690341
      pz      :     0.782967  p :     2.238365
      px      :     0.544971
      py      :     0.910427
      dz2     :     0.021091  d :     0.071350
      dxz     :     0.008261
      dyz     :     0.015801
      dx2y2   :     0.010206
      dxy     :     0.015991

  4 B s       :     2.690379  s :     2.690379
      pz      :     0.782948  p :     2.238171
      px      :     0.819094
      py      :     0.636129
      dz2     :     0.021092  d :     0.071362
      dxz     :     0.013921
      dyz     :     0.010148
      dx2y2   :     0.014545
      dxy     :     0.011656

  5 B s       :     2.690335  s :     2.690335
      pz      :     0.782986  p :     2.238368
      px      :     0.819081
      py      :     0.636301
      dz2     :     0.021093  d :     0.071357
      dxz     :     0.013916
      dyz     :     0.010149
      dx2y2   :     0.014546
      dxy     :     0.011654

  6 B s       :     2.690353  s :     2.690353
      pz      :     0.782897  p :     2.238345
      px      :     0.636364
      py      :     0.819084
      dz2     :     0.021089  d :     0.071347
      dxz     :     0.010147
      dyz     :     0.013916
      dx2y2   :     0.014546
      dxy     :     0.011650

  7 B s       :     2.690379  s :     2.690379
      pz      :     0.782928  p :     2.238187
      px      :     0.910514
      py      :     0.544745
      dz2     :     0.021090  d :     0.071358
      dxz     :     0.015810
      dyz     :     0.008256
      dx2y2   :     0.010211
      dxy     :     0.015990

  8 B s       :     2.690331  s :     2.690331
      pz      :     0.782992  p :     2.238371
      px      :     0.636295
      py      :     0.819085
      dz2     :     0.021093  d :     0.071354
      dxz     :     0.010148
      dyz     :     0.013916
      dx2y2   :     0.014544
      dxy     :     0.011653

  9 B s       :     2.690369  s :     2.690369
      pz      :     0.782969  p :     2.238198
      px      :     0.636165
      py      :     0.819063
      dz2     :     0.021091  d :     0.071361
      dxz     :     0.010148
      dyz     :     0.013919
      dx2y2   :     0.014548
      dxy     :     0.011656

 10 B s       :     2.690308  s :     2.690308
      pz      :     0.782933  p :     2.238450
      px      :     0.910466
      py      :     0.545051
      dz2     :     0.021093  d :     0.071357
      dxz     :     0.015803
      dyz     :     0.008263
      dx2y2   :     0.010206
      dxy     :     0.015993

 11 B s       :     2.690364  s :     2.690364
      pz      :     0.783024  p :     2.238185
      px      :     0.636142
      py      :     0.819019
      dz2     :     0.021094  d :     0.071365
      dxz     :     0.010145
      dyz     :     0.013923
      dx2y2   :     0.014546
      dxy     :     0.011658



                      *****************************
                      * MAYER POPULATION ANALYSIS *
                      *****************************

  NA   - Mulliken gross atomic population
  ZA   - Total nuclear charge
  QA   - Mulliken gross atomic charge
  VA   - Mayer's total valence
  BVA  - Mayer's bonded valence
  FA   - Mayer's free valence

  ATOM       NA         ZA         QA         VA         BVA        FA
  0 B      4.9998     5.0000     0.0002     3.6193     3.6193    -0.0000
  1 B      5.0001     5.0000    -0.0001     3.6198     3.6198     0.0000
  2 B      4.9999     5.0000     0.0001     3.6195     3.6195     0.0000
  3 B      5.0001     5.0000    -0.0001     3.6199     3.6199     0.0000
  4 B      4.9999     5.0000     0.0001     3.6194     3.6194     0.0000
  5 B      5.0003     5.0000    -0.0003     3.6201     3.6201     0.0000
  6 B      5.0002     5.0000    -0.0002     3.6204     3.6204    -0.0000
  7 B      5.0001     5.0000    -0.0001     3.6194     3.6194     0.0000
  8 B      4.9998     5.0000     0.0002     3.6199     3.6199     0.0000
  9 B      5.0001     5.0000    -0.0001     3.6193     3.6193     0.0000
 10 B      5.0000     5.0000    -0.0000     3.6202     3.6202     0.0000
 11 B      4.9997     5.0000     0.0003     3.6188     3.6188     0.0000

  Mayer bond orders larger than 0.100000
B(  0-B ,  1-B ) :   0.8804 B(  0-B ,  5-B ) :   0.8803 B(  0-B ,  6-B ) :   0.7247 
B(  0-B , 11-B ) :   0.7253 B(  1-B ,  2-B ) :   0.8805 B(  1-B ,  6-B ) :   0.7245 
B(  1-B ,  7-B ) :   0.7251 B(  2-B ,  3-B ) :   0.8802 B(  2-B ,  7-B ) :   0.7253 
B(  2-B ,  8-B ) :   0.7247 B(  3-B ,  4-B ) :   0.8805 B(  3-B ,  8-B ) :   0.7246 
B(  3-B ,  9-B ) :   0.7252 B(  4-B ,  5-B ) :   0.8806 B(  4-B ,  9-B ) :   0.7253 
B(  4-B , 10-B ) :   0.7247 B(  5-B , 10-B ) :   0.7247 B(  5-B , 11-B ) :   0.7251 
B(  6-B ,  7-B ) :   0.8807 B(  6-B , 11-B ) :   0.8804 B(  7-B ,  8-B ) :   0.8804 
B(  8-B ,  9-B ) :   0.8803 B(  9-B , 10-B ) :   0.8805 B( 10-B , 11-B ) :   0.8803 


-------
TIMINGS
-------

Total SCF time: 0 days 0 hours 0 min 9 sec 

Total time                  ....       9.649 sec
Sum of individual times     ....       8.964 sec  ( 92.9%)

SCF preparation             ....       0.466 sec  (  4.8%)
Fock matrix formation       ....       7.877 sec  ( 81.6%)
  Startup                   ....       0.010 sec  (  0.1% of F)
  Split-RI-J                ....       1.094 sec  ( 13.9% of F)
  XC integration            ....       7.138 sec  ( 90.6% of F)
    XC Preparation          ....       0.000 sec  (  0.0% of XC)
    Basis function eval.    ....       0.721 sec  ( 10.1% of XC)
    Density eval.           ....       2.004 sec  ( 28.1% of XC)
    XC-Functional eval.     ....       0.322 sec  (  4.5% of XC)
    XC-Potential eval.      ....       2.312 sec  ( 32.4% of XC)
Diagonalization             ....       0.000 sec  (  0.0%)
Density matrix formation    ....       0.091 sec  (  0.9%)
Total Energy calculation    ....       0.031 sec  (  0.3%)
Population analysis         ....       0.049 sec  (  0.5%)
Orbital Transformation      ....       0.053 sec  (  0.5%)
Orbital Orthonormalization  ....       0.000 sec  (  0.0%)
DIIS solution               ....       0.274 sec  (  2.8%)
SOSCF solution              ....       0.123 sec  (  1.3%)
Finished LeanSCF after   9.7 sec

Maximum memory used throughout the entire LEANSCF-calculation: 14.7 MB


-------------------------------------------------------------------------------
                          DFT DISPERSION CORRECTION                            
                                                                               
                                DFTD4 V3.4.0                                   
-------------------------------------------------------------------------------
The R2SCAN3C composite method is recognized
Using three-body term ABC
Active option DFTDOPT                   ...         5   

-------------------------   ----------------
Dispersion correction           -0.005771621
-------------------------   ----------------

------------------   -----------------
gCP correction             0.010119186
------------------   -----------------

-------------------------   --------------------
FINAL SINGLE POINT ENERGY      -297.797541387041
-------------------------   --------------------



           ************************************************************
           *        Program running with 8 parallel MPI-processes     *
           *              working on a common directory               *
           ************************************************************
------------------------------------------------------------------------------
                         ORCA SCF GRADIENT CALCULATION
------------------------------------------------------------------------------

Nuc. rep. gradient        (SHARK) ... done (  0.0 sec)
HCore & Overlap gradient  (SHARK) ... done (  0.1 sec)
Split-RIJ-J gradient      (SHARK) ... done (  0.4 sec)
XC gradient                       ... done (  1.4 sec)
Dispersion correction             ... done (  0.1 sec)

-------------------
DISPERSION GRADIENT
-------------------

   1   B   :    0.000046782    0.000000010   -0.000007437
   2   B   :    0.000023391    0.000040508   -0.000007408
   3   B   :   -0.000023389    0.000040512   -0.000007440
   4   B   :   -0.000046791   -0.000000000   -0.000007446
   5   B   :   -0.000023388   -0.000040508   -0.000007440
   6   B   :    0.000023398   -0.000040520   -0.000007455
   7   B   :    0.000040518    0.000023402    0.000007424
   8   B   :    0.000000007    0.000046773    0.000007427
   9   B   :   -0.000040521    0.000023391    0.000007447
  10   B   :   -0.000040506   -0.000023389    0.000007431
  11   B   :   -0.000000004   -0.000046794    0.000007444
  12   B   :    0.000040505   -0.000023384    0.000007451

Difference to translation invariance:
           :   -0.0000000000    0.0000000000    0.0000000000

Difference to rotation invariance:
           :   -0.0000000000    0.0000000000    0.0000000000

Norm of the Dispersion gradient    ...    0.0001640928
RMS gradient                       ...    0.0000273488
MAX gradient                       ...    0.0000467942
gCP correction                   ... done

------------------
CARTESIAN GRADIENT
------------------

   1   B   :   -0.013256118   -0.000010412   -0.011956845
   2   B   :   -0.006685825   -0.011273583   -0.011874203
   3   B   :    0.006698778   -0.011247690   -0.011830346
   4   B   :    0.013243761   -0.000037912   -0.011972509
   5   B   :    0.006664696    0.011294789   -0.011848804
   6   B   :   -0.006681075    0.011244701   -0.011840738
   7   B   :   -0.011282878   -0.006624434    0.011881463
   8   B   :    0.000009354   -0.013293889    0.011967564
   9   B   :    0.011287386   -0.006638410    0.011850682
  10   B   :    0.011312828    0.006629231    0.011834626
  11   B   :   -0.000011344    0.013287315    0.011968456
  12   B   :   -0.011299562    0.006670294    0.011820656

Difference to translation invariance:
           :    0.0000000000   -0.0000000000    0.0000000000

Difference to rotation invariance:
           :    0.0000000600    0.0000008524   -0.0000028150

Norm of the Cartesian gradient     ...    0.0614258165
RMS gradient                       ...    0.0102376361
MAX gradient                       ...    0.0132938889

-------
TIMINGS
-------

Total SCF gradient time     ....        1.927 sec

Densities                   ....       0.001 sec  (  0.0%)
One electron gradient       ....       0.084 sec  (  4.4%)
RI-J Coulomb gradient       ....       0.371 sec  ( 19.3%)
XC gradient                 ....       1.382 sec  ( 71.7%)

Maximum memory used throughout the entire SCFGRAD-calculation: 32.5 MB
------------------------------------------------------------------------------
                         ORCA GEOMETRY RELAXATION STEP
------------------------------------------------------------------------------

Reading the OPT-File                    .... done
Getting information on internals        .... done
Copying old internal coords+grads       .... done
Making the new internal coordinates     .... (2022 redundants) done
Validating the new internal coordinates .... (2022 redundants) done
Calculating the B-matrix                .... done
Calculating the G,G- and P matrices     .... done
Transforming gradient to internals      .... done
Projecting the internal gradient        .... done
Number of atoms                         ....  12
Number of internal coordinates          .... 240
Current Energy                          ....  -297.797541387 Eh
Current gradient norm                   ....     0.061425817 Eh/bohr
Maximum allowed component of the step   ....  0.300
Current trust radius                    ....  0.300
Evaluating the initial hessian          ....  (Almloef) done
Projecting the Hessian                  .... done
Forming the augmented Hessian           .... done
Diagonalizing the augmented Hessian     .... done
Last element of RFO vector              ....  0.990111120
Lowest eigenvalues of augmented Hessian:
 -0.006330644  0.041551820  0.042924460  0.049868275  0.059085203
Length of the computed step             ....  0.141686438
The final length of the internal step   ....  0.141686438
Converting the step to Cartesian space:
 Initial RMS(Int)=    0.0091458202
Transforming coordinates:
 Iter   0:  RMS(Cart)=    0.0180714708 RMS(Int)=    0.0091578683
done
Storing new coordinates                 .... done

                                .--------------------.
          ----------------------|Geometry convergence|-------------------------
          Item                value                   Tolerance       Converged
          ---------------------------------------------------------------------
          RMS gradient        0.0029422654            0.0000300000      NO
          MAX gradient        0.0105620832            0.0001000000      NO
          RMS step            0.0091458202            0.0006000000      NO
          MAX step            0.0288742803            0.0010000000      NO
          -------------------------------------------------------------------------
          ........................................................
          Max(Bonds)      0.0153      Max(Angles)    0.85
          Max(Dihed)        0.51      Max(Improp)    0.00
          ---------------------------------------------------------------------

The optimization has not yet converged - more geometry cycles are needed


    ---------------------------------------------------------------------------
                         Redundant Internal Coordinates
                            (Angstroem and degrees)

        Definition                    Value    dE/dq     Step     New-Value
    ----------------------------------------------------------------------------
     1. B(B   1,B   0)                1.5899 -0.010411  0.0150    1.6049   
     2. B(B   2,B   1)                1.5898 -0.010405  0.0153    1.6051   
     3. B(B   3,B   2)                1.5900 -0.010299  0.0150    1.6050   
     4. B(B   4,B   3)                1.5899 -0.010357  0.0151    1.6049   
     5. B(B   5,B   4)                1.5898 -0.010436  0.0153    1.6051   
     6. B(B   5,B   0)                1.5900 -0.010356  0.0150    1.6050   
     7. B(B   6,B   0)                1.7240  0.002764 -0.0081    1.7159   
     8. B(B   6,B   1)                1.7240  0.002743 -0.0081    1.7160   
     9. B(B   7,B   6)                1.5898 -0.010562  0.0151    1.6049   
    10. B(B   7,B   2)                1.7239  0.002877 -0.0082    1.7158   
    11. B(B   7,B   1)                1.7240  0.002764 -0.0081    1.7159   
    12. B(B   8,B   7)                1.5899 -0.010400  0.0151    1.6049   
    13. B(B   8,B   3)                1.7239  0.002839 -0.0082    1.7157   
    14. B(B   8,B   2)                1.7239  0.002644 -0.0080    1.7159   
    15. B(B   9,B   3)                1.7239  0.002565 -0.0081    1.7158   
    16. B(B   9,B   8)                1.5899 -0.010525  0.0153    1.6052   
    17. B(B   9,B   4)                1.7240  0.002886 -0.0081    1.7159   
    18. B(B  10,B   9)                1.5898 -0.010478  0.0151    1.6049   
    19. B(B  10,B   5)                1.7238  0.002904 -0.0082    1.7157   
    20. B(B  10,B   4)                1.7240  0.002544 -0.0081    1.7159   
    21. B(B  11,B  10)                1.5899 -0.010502  0.0151    1.6049   
    22. B(B  11,B   6)                1.5899 -0.010519  0.0153    1.6052   
    23. B(B  11,B   5)                1.7239  0.002369 -0.0080    1.7160   
    24. B(B  11,B   0)                1.7238  0.002676 -0.0081    1.7157   
    25. A(B   1,B   0,B   5)          120.00  0.000017   -0.02    119.98   
    26. A(B   6,B   0,B  11)           54.92 -0.004507    0.85     55.77   
    27. A(B   5,B   0,B  11)           62.54  0.002103   -0.42     62.13   
    28. A(B   1,B   0,B   6)           62.54  0.002233   -0.42     62.12   
    29. A(B   1,B   0,B  11)          109.72 -0.001596    0.30    110.02   
[...]
      dx2y2   :     0.006297
      dxy     :     0.006383

  6 B s       :     3.013162  s :     3.013162
      pz      :     0.733039  p :     1.948774
      px      :     0.549799
      py      :     0.665936
      dz2     :     0.010317  d :     0.037102
      dxz     :     0.006755
      dyz     :     0.007350
      dx2y2   :     0.006298
      dxy     :     0.006382

  7 B s       :     3.014694  s :     3.014694
      pz      :     0.733285  p :     1.950178
      px      :     0.724233
      py      :     0.492659
      dz2     :     0.010310  d :     0.037090
      dxz     :     0.007636
      dyz     :     0.006447
      dx2y2   :     0.006436
      dxy     :     0.006260

  8 B s       :     3.013039  s :     3.013039
      pz      :     0.733052  p :     1.948783
      px      :     0.549774
      py      :     0.665957
      dz2     :     0.010318  d :     0.037104
      dxz     :     0.006756
      dyz     :     0.007350
      dx2y2   :     0.006297
      dxy     :     0.006383

  9 B s       :     3.014579  s :     3.014579
      pz      :     0.733038  p :     1.947544
      px      :     0.548868
      py      :     0.665639
      dz2     :     0.010317  d :     0.037105
      dxz     :     0.006755
      dyz     :     0.007352
      dx2y2   :     0.006298
      dxy     :     0.006383

 10 B s       :     3.013237  s :     3.013237
      pz      :     0.733318  p :     1.951411
      px      :     0.724231
      py      :     0.493861
      dz2     :     0.010309  d :     0.037086
      dxz     :     0.007632
      dyz     :     0.006449
      dx2y2   :     0.006436
      dxy     :     0.006260

 11 B s       :     3.014570  s :     3.014570
      pz      :     0.733016  p :     1.947468
      px      :     0.548839
      py      :     0.665614
      dz2     :     0.010317  d :     0.037105
      dxz     :     0.006755
      dyz     :     0.007352
      dx2y2   :     0.006298
      dxy     :     0.006383



                     *******************************
                     * LOEWDIN POPULATION ANALYSIS *
                     *******************************

----------------------
LOEWDIN ATOMIC CHARGES
----------------------
   0 B :   -0.000590
   1 B :    0.000296
   2 B :    0.000326
   3 B :   -0.000659
   4 B :    0.000358
   5 B :    0.000295
   6 B :    0.000234
   7 B :   -0.000567
   8 B :    0.000220
   9 B :    0.000370
  10 B :   -0.000698
  11 B :    0.000416

-------------------------------
LOEWDIN REDUCED ORBITAL CHARGES
-------------------------------
  0 B s       :     2.685417  s :     2.685417
      pz      :     0.807572  p :     2.243448
      px      :     0.543952
      py      :     0.891925
      dz2     :     0.021823  d :     0.071725
      dxz     :     0.008530
      dyz     :     0.015957
      dx2y2   :     0.010274
      dxy     :     0.015140

  1 B s       :     2.685628  s :     2.685628
      pz      :     0.807629  p :     2.242340
      px      :     0.804582
      py      :     0.630130
      dz2     :     0.021834  d :     0.071736
      dxz     :     0.014116
      dyz     :     0.010395
      dx2y2   :     0.013905
      dxy     :     0.011485

  2 B s       :     2.685642  s :     2.685642
      pz      :     0.807633  p :     2.242295
      px      :     0.804570
      py      :     0.630092
      dz2     :     0.021834  d :     0.071738
      dxz     :     0.014117
      dyz     :     0.010395
      dx2y2   :     0.013905
      dxy     :     0.011485

  3 B s       :     2.685407  s :     2.685407
      pz      :     0.807561  p :     2.243528
      px      :     0.544063
      py      :     0.891904
      dz2     :     0.021824  d :     0.071724
      dxz     :     0.008532
      dyz     :     0.015955
      dx2y2   :     0.010272
      dxy     :     0.015140

  4 B s       :     2.685643  s :     2.685643
      pz      :     0.807604  p :     2.242262
      px      :     0.804611
      py      :     0.630046
      dz2     :     0.021835  d :     0.071737
      dxz     :     0.014116
      dyz     :     0.010397
      dx2y2   :     0.013903
      dxy     :     0.011486

  5 B s       :     2.685623  s :     2.685623
      pz      :     0.807599  p :     2.242347
      px      :     0.804602
      py      :     0.630146
      dz2     :     0.021834  d :     0.071734
      dxz     :     0.014113
      dyz     :     0.010398
      dx2y2   :     0.013904
      dxy     :     0.011485

  6 B s       :     2.685612  s :     2.685612
      pz      :     0.807601  p :     2.242420
      px      :     0.630221
      py      :     0.804599
      dz2     :     0.021835  d :     0.071734
      dxz     :     0.010397
      dyz     :     0.014114
      dx2y2   :     0.013905
      dxy     :     0.011483

  7 B s       :     2.685436  s :     2.685436
      pz      :     0.807563  p :     2.243405
      px      :     0.891937
      py      :     0.543905
      dz2     :     0.021823  d :     0.071727
      dxz     :     0.015960
      dyz     :     0.008529
      dx2y2   :     0.010275
      dxy     :     0.015139

  8 B s       :     2.685613  s :     2.685613
      pz      :     0.807626  p :     2.242431
      px      :     0.630175
      py      :     0.804630
      dz2     :     0.021835  d :     0.071736
      dxz     :     0.010398
      dyz     :     0.014114
      dx2y2   :     0.013904
      dxy     :     0.011485

  9 B s       :     2.685656  s :     2.685656
      pz      :     0.807635  p :     2.242236
      px      :     0.630023
      py      :     0.804578
      dz2     :     0.021834  d :     0.071738
      dxz     :     0.010397
      dyz     :     0.014116
      dx2y2   :     0.013905
      dxy     :     0.011487

 10 B s       :     2.685390  s :     2.685390
      pz      :     0.807572  p :     2.243585
      px      :     0.891897
      py      :     0.544116
      dz2     :     0.021823  d :     0.071722
      dxz     :     0.015952
      dyz     :     0.008533
      dx2y2   :     0.010272
      dxy     :     0.015141

 11 B s       :     2.685661  s :     2.685661
      pz      :     0.807617  p :     2.242187
      px      :     0.630011
      py      :     0.804558
      dz2     :     0.021834  d :     0.071736
      dxz     :     0.010395
      dyz     :     0.014118
      dx2y2   :     0.013904
      dxy     :     0.011486



                      *****************************
                      * MAYER POPULATION ANALYSIS *
                      *****************************

  NA   - Mulliken gross atomic population
  ZA   - Total nuclear charge
  QA   - Mulliken gross atomic charge
  VA   - Mayer's total valence
  BVA  - Mayer's bonded valence
  FA   - Mayer's free valence

  ATOM       NA         ZA         QA         VA         BVA        FA
  0 B      5.0018     5.0000    -0.0018     3.6718     3.6718    -0.0000
  1 B      4.9990     5.0000     0.0010     3.6681     3.6681     0.0000
  2 B      4.9991     5.0000     0.0009     3.6679     3.6679     0.0000
  3 B      5.0019     5.0000    -0.0019     3.6722     3.6722     0.0000
  4 B      4.9990     5.0000     0.0010     3.6678     3.6678     0.0000
  5 B      4.9991     5.0000     0.0009     3.6682     3.6682    -0.0000
  6 B      4.9990     5.0000     0.0010     3.6683     3.6683    -0.0000
  7 B      5.0020     5.0000    -0.0020     3.6718     3.6718    -0.0000
  8 B      4.9989     5.0000     0.0011     3.6682     3.6682    -0.0000
  9 B      4.9992     5.0000     0.0008     3.6677     3.6677     0.0000
 10 B      5.0017     5.0000    -0.0017     3.6723     3.6723    -0.0000
 11 B      4.9991     5.0000     0.0009     3.6676     3.6676    -0.0000

  Mayer bond orders larger than 0.100000
B(  0-B ,  1-B ) :   0.8441 B(  0-B ,  5-B ) :   0.8440 B(  0-B ,  6-B ) :   0.7812 
B(  0-B , 11-B ) :   0.7816 B(  1-B ,  2-B ) :   0.8429 B(  1-B ,  6-B ) :   0.7809 
B(  1-B ,  7-B ) :   0.7815 B(  2-B ,  3-B ) :   0.8442 B(  2-B ,  7-B ) :   0.7817 
B(  2-B ,  8-B ) :   0.7811 B(  3-B ,  4-B ) :   0.8440 B(  3-B ,  8-B ) :   0.7810 
B(  3-B ,  9-B ) :   0.7815 B(  4-B ,  5-B ) :   0.8430 B(  4-B ,  9-B ) :   0.7815 
B(  4-B , 10-B ) :   0.7812 B(  5-B , 10-B ) :   0.7810 B(  5-B , 11-B ) :   0.7814 
B(  6-B ,  7-B ) :   0.8441 B(  6-B , 11-B ) :   0.8429 B(  7-B ,  8-B ) :   0.8440 
B(  8-B ,  9-B ) :   0.8429 B(  9-B , 10-B ) :   0.8441 B( 10-B , 11-B ) :   0.8441 


-------
TIMINGS
-------

Total SCF time: 0 days 0 hours 0 min 3 sec 

Total time                  ....       3.317 sec
Sum of individual times     ....       2.664 sec  ( 80.3%)

SCF preparation             ....       0.446 sec  ( 13.4%)
Fock matrix formation       ....       2.033 sec  ( 61.3%)
  Startup                   ....       0.008 sec  (  0.4% of F)
  Split-RI-J                ....       0.325 sec  ( 16.0% of F)
  XC integration            ....       2.245 sec  (110.5% of F)
    Basis function eval.    ....       0.211 sec  (  9.4% of XC)
    Density eval.           ....       0.642 sec  ( 28.6% of XC)
    XC-Functional eval.     ....       0.100 sec  (  4.5% of XC)
    XC-Potential eval.      ....       0.696 sec  ( 31.0% of XC)
Diagonalization             ....       0.000 sec  (  0.0%)
Density matrix formation    ....       0.016 sec  (  0.5%)
Total Energy calculation    ....       0.008 sec  (  0.2%)
Population analysis         ....       0.055 sec  (  1.7%)
Orbital Transformation      ....       0.020 sec  (  0.6%)
Orbital Orthonormalization  ....       0.000 sec  (  0.0%)
DIIS solution               ....       0.029 sec  (  0.9%)
SOSCF solution              ....       0.059 sec  (  1.8%)
Finished LeanSCF after   3.4 sec

Maximum memory used throughout the entire LEANSCF-calculation: 15.0 MB


-------------------------------------------------------------------------------
                          DFT DISPERSION CORRECTION                            
                                                                               
                                DFTD4 V3.4.0                                   
-------------------------------------------------------------------------------
The R2SCAN3C composite method is recognized
Using three-body term ABC
Active option DFTDOPT                   ...         5   

-------------------------   ----------------
Dispersion correction           -0.005744194
-------------------------   ----------------

------------------   -----------------
gCP correction             0.010069734
------------------   -----------------

-------------------------   --------------------
FINAL SINGLE POINT ENERGY      -297.805239027148
-------------------------   --------------------

                                *** OPTIMIZATION RUN DONE ***



           ************************************************************
           *        Program running with 8 parallel MPI-processes     *
           *              working on a common directory               *
           ************************************************************

------------------------------------------------------------------------------
                              ORCA PROPERTY CALCULATIONS
------------------------------------------------------------------------------

GBWName                                 ... double_ring_6_6_d1.90_m1_r2scan.gbw
Number of atoms                         ...     12
Number of basis functions               ...    228
Max core memory                         ...   2000 MB

Electric properties:
Dipole moment                           ... YES
Quadrupole moment                       ...  NO
Static polarizability (Dipole/Dipole)   ...  NO
Static polarizability (Dipole/Quad.)    ...  NO
Static polarizability (Quad./Quad.)     ...  NO
Static polarizability (Velocity)        ...  NO
Static hyperpolarizability              ...  NO

Atomic electric properties:
Dipole moment                           ...  NO
Quadrupole moment                       ...  NO
Static polarizability                   ...  NO

Choice of electric origin               ... Center of mass
Position of electric origin             ...    -0.000000     0.000000     0.000000

General magnetic properties:
Magnetizability                         ...  NO

EPR properties:
g-Tensor (aka g-matrix)                 ...  NO
Zero-Field splitting spin-orbit         ...  NO
Zero-field splitting spin-spin          ...  NO
Hyperfine couplings                     ...  NO (   0 nuclei)
Quadrupole couplings                    ...  NO (   0 nuclei)
Contact density                         ...  NO (   0 nuclei)

NMR properties:
Chemical shifts                         ...  NO (   0 nuclei)
Spin-rotation constants                 ...  NO (   0 nuclei)
Spin-spin couplings                     ...  NO (   0 nuclei,    0 pairs)

Choice of magnetic origin               ... GIAO
Position of magnetic origin             ...     0.000000     0.000000     0.000000

Properties with geometric perturbations:
SCF Hessian                             ...  NO
IR spectrum                             ...  NO
VCD spectrum                            ...  NO
X-ray spectroscopy properties:
SCF XES/XAS/RIXS spectra                ...  NO

SCF SOC stabilization energy            ...  NO
Diagonal Born-Oppenheimer correction    ...  NO

-------------
DIPOLE MOMENT
-------------

Method             : SCF
Type of density    : Electron Density
Multiplicity       :   1
Irrep              :   0
Energy             :  -297.8095645671272678 Eh
Basis              : AO
                                X                 Y                 Z
Electronic contribution:      0.000252957      -0.000212710      -0.000111162
Nuclear contribution   :     -0.000000000      -0.000000000      -0.000000000
                        -----------------------------------------
Total Dipole Moment    :      0.000252957      -0.000212710      -0.000111162
                        -----------------------------------------
Magnitude (a.u.)       :      0.000348697
Magnitude (Debye)      :      0.000886318



--------------------
Rotational spectrum 
--------------------
 
Rotational constants in cm-1:             0.070242             0.070242             0.049518 
Rotational constants in MHz :          2105.809727          2105.799079          1484.510700 

Dipole components along the rotational axes: 
x,y,z [a.u.] :     0.000320    -0.000083    -0.000111 
x,y,z [Debye]:     0.000813    -0.000212    -0.000283 

 

Dipole moment calculation done in   0.0 sec 

Maximum memory used throughout the entire PROP-calculation: 11.1 MB

--------------------------------
SUGGESTED CITATIONS FOR THIS RUN
--------------------------------

Below you find a list of papers that are relevant to this ORCA run
We neither can nor want to force you to cite these papers, but we appreciate if you do
You receive ORCA, which is the product of decades of hard work by many enthusiastic individuals, for free
The only thing we kindly ask in return is that you cite our papers,
We deeply appreciate it, if you show your appreciation for ORCA by not just citing the generic ORCA reference.

Please note that relegating all ORCA citations to the supporting information does *not* help us.
SI sections are not indexed - citations you put there will not count into any citation statistics
But we need these citations in order to attract the funding resources that allow us to do what we are doing

Therefore, if you are a happy ORCA user, please consider citing a few of the papers listed below in the main body of your paper

In addition to the list printed below, the program has created the file double_ring_6_6_d1.90_m1_r2scan.bibtex that contains the list in bibtex format
You can import this file easily into all common literature databanks and citation aid programs

It goes without saying that in many instances, there are alternative algorithms to achieve similar
results as the ones you have gotten from ORCA. It is, of course, also the case that in some instances
ORCA just re-implements algorithms worked out by others. We are fully aware of that and we are also
fully appreciative of our colleagues work. Hence this citation list should not be read as indicating
that the listed papers, which are focused on our own work, are the only ones worth citing. It simply
meant to make it easier for users to cite ORCA specific papers. It is not a substitute for doing your
own literature research and citing the relevant literature in a scientifically appropriate manner.

List of essential papers. We consider these as the minimum necessary citations

  1. Grimme, S.; Hansen, A.; Ehlert, S.; Mewes, J.
     r2SCAN-3c: A 'Swiss army knife' composite electronic-structure method
     J. Chem. Phys. 2021 154 , 064103
     doi.org/10.1063/5.0040021
  2. Neese, F.
     Software update: the ORCA program system, version 6.0
     WIRES Comput. Molec. Sci. 2025 15(1), e70019
     doi.org/10.1002/wcms.70019

List of papers to cite with high priority. The work reported in these papers was absolutely
necessary for this run to complete.
Our perspective: the developers of density functionals and basis sets usually get cited in chemistry papers
Good! But without the algorithms to do something with them, the functionals or basis sets would not do anything.
Hence, in our opinion, the algorithm design and method developments papers are equally worthy of getting cited

  1. Neese, F.
     An improvement of the resolution of the identity approximation for the formation of the Coulomb matrix
     J. Comp. Chem. 2003 24(14), 1740-1747
     doi.org/10.1002/jcc.10318
  2. Caldeweyher, E.; Bannwarth, C.; Grimme, S.
     Extension of the D3 dispersion coefficient model
     J. Chem. Phys. 2017 147 , 034112
     doi.org/10.1063/1.4993215
  3. Lehtola, S.; Steigemann, C.; Oliveira, M.; Marques, M.
     Recent developments in Libxc - A comprehensive library of functionals for density functional theory
     Software X 2018 7 , 
     doi.org/10.1016/j.softx.2017.11.002
  4. Caldeweyher, E.; Ehlert, S.; Hansen, A.; Neugebauer, H.; Spicher, S.; Bannwarth, C.; Grimme, S.
     A generally applicable atomic-charge dependent London dispersion correction
     J. Chem. Phys. 2019 150 , 154122
     doi.org/10.1063/1.5090222
  5. Neese, F.
     The SHARK Integral Generation and Digestion System
     J. Comp. Chem. 2022 44(3), 381
     doi.org/10.1002/jcc.26942

List of suggested additional citations. These are papers that are important in the 'surrounding' of 
of this run, or papers that preceded the highly important papers. If you like your results we are grateful for a citation.

  1. Neese, F.
     The ORCA program system
     WIRES Comput. Molec. Sci. 2012 2(1), 73-78
     doi.org/10.1002/wcms.81
  2. Neese, F.
     Software update: the ORCA program system, version 4.0
     WIRES Comput. Molec. Sci. 2018 8(1), 1-6
     doi.org/10.1002/wcms.1327
  3. Neese, F.; Wennmohs, F.; Becker, U.; Riplinger, C.
     The ORCA quantum chemistry program package
     J. Chem. Phys. 2020 152(22), 224108
     doi.org/10.1063/5.0004608
  4. Neese, F.
     Software update: The ORCA program system—Version 5.0
     WIRES Comput. Molec. Sci. 2022 12(1), e1606
     doi.org/10.1002/wcms.1606

List of optional additional citations

  1. Neese, F.
     Approximate second-order SCF convergence for spin unrestricted wavefunctions
     Chem. Phys. Lett. 2000 325(1-3), 93-98
     doi.org/10.1016/s0009-2614(00)00662-x

Timings for individual modules:

Sum of individual times          ...       75.337 sec (=   1.256 min)
Startup calculation              ...       10.518 sec (=   0.175 min)  14.0 %
SCF iterations                   ...       49.279 sec (=   0.821 min)  65.4 %
Property calculations            ...        0.620 sec (=   0.010 min)   0.8 %
SCF Gradient evaluation          ...       14.791 sec (=   0.247 min)  19.6 %
Geometry relaxation              ...        0.128 sec (=   0.002 min)   0.2 %
                             ****ORCA TERMINATED NORMALLY****
TOTAL RUN TIME: 0 days 0 hours 1 minutes 20 seconds 157 msec
