
                                 *****************
                                 * O   R   C   A *
                                 *****************

                                            #,                                       
                                            ###                                      
                                            ####                                     
                                            #####                                    
                                            ######                                   
                                           ########,                                 
                                     ,,################,,,,,                         
                               ,,#################################,,                 
                          ,,##########################################,,             
                       ,#########################################, ''#####,          
                    ,#############################################,,   '####,        
                  ,##################################################,,,,####,       
                ,###########''''           ''''###############################       
              ,#####''   ,,,,##########,,,,          '''####'''          '####       
            ,##' ,,,,###########################,,,                        '##       
           ' ,,###''''                  '''############,,,                           
         ,,##''                                '''############,,,,        ,,,,,,###''
      ,#''                                            '''#######################'''  
     '                                                          ''''####''''         
             ,#######,   #######,   ,#######,      ##                                
            ,#'     '#,  ##    ##  ,#'     '#,    #''#        ,####,    ,#,          
            ##       ##  ##   ,#'  ##            #'  '#       #'       ,# #          
            ##       ##  #######   ##           ,######,      #####,      #          
            '#,     ,#'  ##    ##  '#,     ,#' ,#      #,     #,   #      #          
             '#######'   ##     ##  '#######'  #'      '#     '####' #    #          



                #########################################################
                #                        -***-                          #
                #          Department of theory and spectroscopy        #
                #                                                       #
                #                      Frank Neese                      #
                #                                                       #
                #     Directorship, Architecture, Infrastructure        #
                #                    SHARK, DRIVERS                     #
                #        Core code/Algorithms in most modules           #
                #                                                       #
                #        Max Planck Institute fuer Kohlenforschung      #
                #                Kaiser Wilhelm Platz 1                 #
                #                 D-45470 Muelheim/Ruhr                 #
                #                      Germany                          #
                #                                                       #
                #                  All rights reserved                  #
                #                        -***-                          #
                #########################################################


                         Program Version 6.1.1  -  RELEASE   -
                                (GIT: $487d211c$)
                          ($2025-11-21 10:33:24 +0100$)
                                                                         
                                  - NO-DMRG VERSION -                    
                                                                         


 With contributions from (in alphabetic order):
[Max-Planck-Institut fuer Kohlenforschung]                               
  Daniel Aravena         : Magnetic Suceptibility                        
  Michael Atanasov       : Ab Initio Ligand Field Theory (pilot matlab implementation)
  Alexander A. Auer      : GIAO ZORA, VPT2 properties, NMR spectrum      
  Ute Becker             : All parallelization in ORCA, NUMFREQ, NUMCALC 
  Giovanni Bistoni       : ED, misc. LED, open-shell LED, HFLD           
  Dmytro Bykov           : pre 5.0 version of the SCF Hessian            
  Marcos Casanova-Páez   : Triplet and SCS-CIS(D). UHF-(DLPNO)-IP/EA/STEOM-CCSD. UHF-CVS-IP/STEOM-CCSD   
  Vijay G. Chilkuri      : MRCI spin determinant printing, contributions to CSF-ICE 
  Pauline Colinet        : FMM embedding                                 
  Dipayan Datta          : RHF DLPNO-CCSD density                        
  Achintya Kumar Dutta   : EOM-CC, STEOM-CC                              
  Nicolas Foglia         : Exact transition moments, OPA infrastructure, MCD improvements    
  Dmitry Ganyushin       : Spin-Orbit,Spin-Spin,Magnetic field MRCI      
  Miquel Garcia-Rates    : C-PCM and meta-GGA Hessian, CCSD/C-PCM, Gaussian charge scheme 
  Tiago L. C. Gouveia    : GS-ROHF, GS-ROCIS                             
  Yang Guo               : DLPNO-NEVPT2, F12-NEVPT2, CIM, IAO-localization        
  Andreas Hansen         : Spin unrestricted coupled pair/coupled cluster methods 
  Ingolf Harden          : AUTO-CI MPn and infrastructure                
  Benjamin Helmich-Paris : MC-RPA, TRAH-(SCF,CASSCF), AVAS, COSX integrals, SCF dyn. polar., MC-PDFT, srDFT 
  Lee Huntington         : MR-EOM, pCC                                   
  Robert Izsak           : Overlap fitted RIJCOSX, COSX-SCS-MP3, EOM     
  Riya Kayal             : Wick's Theorem for AUTO-CI, AUTO-CI UHF-CCSDT 
  Emily Kempfer          : AUTO-CI RHF CISDT and CCSDT, approximate NEVPT4
  Christian Kollmar      : KDIIS, OOCD, Brueckner-CCSD(T), CCSD density, CASPT2, CASPT2-K, improved NEVPT2 
  Axel Koslowski         : Symmetry handling                             
  Simone Kossmann        : meta-GGA functionals, TD-DFT gradient, OOMP2, (MP2 Hessian; deprecated post 5.0) 
  Lucas Lang             : DCDCAS, Hyperfine gauge corrections, ICE-SOC+SSC
  Marvin Lechner         : AUTO-CI (C++ implementation), FIC-MRCC        
  Spencer Leger          : CASSCF response                               
  Dagmar Lenk            : GEPOL surface, SMD, ORCA-2-JSON               
  Dimitrios Liakos       : Extrapolation schemes; Compound Job, Property file
  Dimitrios Manganas     : Further ROCIS development; embedding schemes. LFT, Crystal Embedding 
  Dimitrios Pantazis     : SARC Basis sets                               
  Anastasios Papadopoulos: AUTO-CI, single reference methods and gradients 
  Taras Petrenko         : pre 6.0 DFT Hessian and TD-DFT gradient,  ECA, NRVS 
  Petra Pikulova         : Analytic Raman intensities                    
  Peter Pinski           : DLPNO-MP2, DLPNO-MP2 Gradient                 
  Shashank Vittal Rao    : ES-AILFT, MagRelax                            
  Christoph Reimann      : Effective Core Potentials                     
  Marius Retegan         : Local ZFS, SOC                                
  Christoph Riplinger    : Optimizer, TS searches, QM/MM, DLPNO-CCSD(T), (RO)-DLPNO pert. Triples 
  Michael Roemelt        : Original ROCIS implementation, recursive CI coupling coefficients
  Masaaki Saitow         : Open-shell DLPNO-CCSD energy and density      
  Barbara Sandhoefer     : DKH picture change effects                    
  Yorick L. A. Schmerwitz: GMF and freeze-and-release deltaSCF, NEB S-IDPP initial path                    
  Kantharuban Sivalingam : CASSCF convergence/infrastructure, NEVPT2, NEVPT3, NEVPT4(SD), FIC-MRCI and CEPA variants
  Bernardo de Souza      : ESD, SOC TD-DFT                               
  Georgi L. Stoychev     : AutoAux, RI-MP2 NMR, DLPNO-MP2 response, X2C  
  Van Anh Tran           : RI-MP2 g-tensors                              
  Willem Van den Heuvel  : Paramagnetic NMR                              
  Zikuan Wang            : NOTCH, Electric field optimization            
  Frank Wennmohs         : Technical directorship and infrastructure     
  Hang Xu                : AUTO-CI-Response properties                   
                                                                         
[FACCTs GmbH]                                                            
  Markus Bursch, Nicolas Foglia, Miquel Garcia-Rates, Ingolf Harden, Hagen Neugebauer, Anastasios Papadopoulos, 
  Christoph Riplinger, Bernardo de Souza, Georgi L. Stoychev                                                    
                                                                 
  APM, various basis sets, CI-OPT, improved COSX, DLPNO-Multilevel,           
  DOCKER, DRACO, updates on ESD, Fragmentator, GOAT, IRC, LR-CPCM, L-BFGS, MBIS, meta-GGA TD-DFT gradient, ML-optimized integration grids, 
  MM, NACMEs, nearIR, NEB, NEB-TS, NL-DFT gradient (VV10), 2- and 3-layer-ONIOM, interface openCOSMO-RS, QMMM,   
  Crystal-QMMM, RESP, rigid body optimization, SF, symmetry and pop. for TD-DFT, various functionals, SOLVATOR                                   
                                                                         
[Other institutions]                                                     
  V. Asgeirsson          : NEB                                           
  Christoph Bannwarth    : sTDA-DFT, sTD-DFT, PBEh-3c, B97-3c, D3        
  Giovanni Bistoni       : ETS/NOCV, ADLD/ADEX, COVALED                  
  Martin Brehm           : Molecular dynamics                            
  Ronald Cardenas        : ETS/NOCV                                      
  Martina Colucci        : COVALED                                       
  Sebastian Ehlert       : rSCAN, r2SCAN, r2SCAN-3c, D4, dhf basis sets  
  Marvin Friede          : D4 for Fr, Ra, Ac-Lr                          
  Lars Goerigk           : TD-DFT with DH, B97 family of functionals     
  Stefan Grimme          : VdW corrections, initial TS optimization, DFT functionals, gCP, sTDA/sTD-DF 
  Waldemar Hujo          : DFT-NL                                        
  H. Jonsson             : NEB                                           
  Holger Kruse           : gCP                                           
  Marcel Mueller         : wB97X-3c, vDZP basis set                      
  Hagen Neugebauer       : wr2SCAN, Native XTB                           
  Gianluca Regni         : ADLD/ADEX                                     
  Tobias Risthaus        : pre 6.0 range-separated hybrid DFT and stability analysis
  Lukas Wittmann         : regularized MP2, r2SCAN double-hybrids, wr2SCAN        
                                                                         
We gratefully acknowledge several colleagues who have allowed us to      
interface, adapt or use parts of their codes:                            
  Ed Valeev, F. Pavosevic, A. Kumar             : LibInt (2-el integral package), F12 methods 
  Garnet Chan, S. Sharma, J. Yang, R. Olivares  : DMRG                   
  Ulf Ekstrom                                   : XCFun DFT Library      
  Mihaly Kallay                                 : mrcc  (arbitrary order and MRCC methods)
  Frank Weinhold                                : gennbo (NPA and NBO analysis)           
  Simon Mueller                                 : openCOSMO-RS                            
  Christopher J. Cramer and Donald G. Truhlar   : smd solvation model                     
  S Lehtola, MJT Oliveira, MAL Marques          : LibXC Library                           
  Liviu Ungur et al                             : ANISO software                          


 Your calculation uses the libint2 library for the computation of 2-el integrals
 For citations please refer to: http://libint.valeyev.net

 Your ORCA version has been built with support for libXC version: 7.0.0
 For citations please refer to: https://libxc.gitlab.io

 This ORCA versions uses:
   CBLAS   interface :  Fast vector & matrix operations
   LAPACKE interface :  Fast linear algebra routines
   SCALAPACK package :  Parallel linear algebra routines
   Shared memory     :  Shared parallel matrices
   BLAS/LAPACK       :  OpenBLAS 0.3.29  USE64BITINT DYNAMIC_ARCH NO_AFFINITY Zen SINGLE_THREADED
        Core in use  :  Zen
   Copyright (c) 2011-2014, The OpenBLAS Project


  ***********************************
  * Starting time: Fri Apr 17 13:44:14 2026
  * Host name:     vmi3233575
  * Process ID:    345589
  * Working dir.:  /root/orca_b12_vps_pack/jobs/02_r2scan
  ***********************************

NOTE: MaxCore=2000 MB was set to SCF,MP2,MDCI,CIPSI,MRCI,RASCI and CIS
      => If you want to overwrite this, your respective input block should be placed after the MaxCore statement


***************************************
The coordinates will be read from file: ../../results/01_xtb_xyz/zigzag_chain12_d1.50_m3.xyz
***************************************


Your calculation utilizes the geometrical counterpoise correction gCP
Please cite in your paper:
H.Kruse, S. Grimme J.Chem.Phys., 136, (2012), 154101 
   

Your calculation utilizes the atom-pairwise dispersion correction
based on EEQ partial charges (D4)


================================================================================

----- Orbital basis set information -----
Your calculation utilizes the basis: def2-mTZVPP
   Stefan Grimme, Andreas Hansen, Sebastian Ehlert, and Jan-Michael Mewes 
   J. Chem. Phys. 154, 064103 (2021). DOI: 10.1063/5.0040021

----- AuxJ basis set information -----
Your calculation utilizes the basis: def2-mTZVPP/J
   Stefan Grimme, Andreas Hansen, Sebastian Ehlert, and Jan-Michael Mewes 
   J. Chem. Phys. 154, 000000 (2021). DOI: 10.1063/5.0040021

================================================================================
                                        WARNINGS
                       Please study these warnings very carefully!
================================================================================



WARNING: SCAN, rSCAN, or r2SCAN functional requested.
  ===> : libXC variant has now been activated.



WARNING: your system is open-shell and RHF/RKS was chosen
  ===> : WILL SWITCH to UHF/UKS


WARNING: Geometry Optimization
  ===> : Switching off AutoStart
         For restart on a previous wavefunction, please use MOREAD

================================================================================
                                       INPUT FILE
================================================================================
NAME = zigzag_chain12_d1.50_m3_r2scan.inp
|  1> ! r2SCAN-3c TightSCF TightOpt
|  2> 
|  3> %pal
|  4>   nprocs 8
|  5> end
|  6> 
|  7> %maxcore 2000
|  8> 
|  9> * xyzfile 0 3 ../../results/01_xtb_xyz/zigzag_chain12_d1.50_m3.xyz
| 10> 
| 11>                          ****END OF INPUT****
================================================================================

                       *****************************
                       * Geometry Optimization Run *
                       *****************************

Geometry optimization settings:
Update method            Update   .... BFGS
Choice of coordinates    CoordSys .... (2022) Redundant Internals
Initial Hessian          InHess   .... Almloef's Model
Max. no of cycles        MaxIter  .... 50

Convergence Tolerances:
Energy Change            TolE     ....  1.0000e-06 Eh
Max. Gradient            TolMAXG  ....  1.0000e-04 Eh/bohr
RMS Gradient             TolRMSG  ....  3.0000e-05 Eh/bohr
Max. Displacement        TolMAXD  ....  1.0000e-03 bohr
RMS Displacement         TolRMSD  ....  6.0000e-04 bohr
Strict Convergence                .... False

------------------------------------------------------------------------------
                        ORCA OPTIMIZATION COORDINATE SETUP
------------------------------------------------------------------------------

The optimization will be done in redundant internal coordinates (2022)
Making redundant internal coordinates   ...  (2022 redundants) done
Evaluating the initial hessian          ...  (Almloef) done
Evaluating the coordinates              ...  done
Calculating the B-matrix                .... done
Calculating the G-matrix                .... done
The number of degrees of freedom        ....   67

    -----------------------------------------------------------------
                    Redundant Internal Coordinates


    -----------------------------------------------------------------
         Definition                    Initial Value    Approx d2E/dq
    -----------------------------------------------------------------
      1. B(B   1,B   0)                  1.4396         0.698627   
      2. B(B   2,B   1)                  1.5988         0.389234   
      3. B(B   2,B   0)                  1.5990         0.389050   
      4. B(B   3,B   2)                  1.5511         0.463857   
      5. B(B   4,B   3)                  1.5301         0.500958   
      6. B(B   5,B   4)                  1.5989         0.389110   
      7. B(B   6,B   4)                  1.5988         0.389252   
      8. B(B   6,B   5)                  1.5893         0.403144   
      9. B(B   7,B   6)                  1.5989         0.389101   
     10. B(B   7,B   5)                  1.5989         0.389165   
     11. B(B   8,B   7)                  1.5301         0.500955   
     12. B(B   9,B   8)                  1.5511         0.463858   
     13. B(B  10,B   9)                  1.5988         0.389233   
     14. B(B  11,B  10)                  1.4396         0.698626   
     15. B(B  11,B   9)                  1.5990         0.389051   
     16. A(B   1,B   0,B   2)           63.2397         0.421894   
     17. A(B   0,B   1,B   2)           63.2489         0.421930   
     18. A(B   1,B   2,B   3)          153.2383         0.392456   
     19. A(B   0,B   2,B   1)           53.5114         0.380614   
     20. A(B   0,B   2,B   3)          153.2503         0.392424   
     21. L(B   2,B   3,B   4,B   5, 2) 180.0000         0.410292   
     22. L(B   2,B   3,B   4,B   5, 1) 179.9995         0.410292   
     23. A(B   5,B   4,B   6)           59.6033         0.380627   
     24. A(B   3,B   4,B   6)          150.1988         0.397791   
     25. A(B   3,B   4,B   5)          150.1978         0.397765   
     26. A(B   6,B   5,B   7)           60.2004         0.382961   
     27. A(B   4,B   5,B   7)          120.3956         0.380613   
     28. A(B   4,B   5,B   6)           60.1952         0.382951   
     29. A(B   4,B   6,B   7)          120.3991         0.380626   
     30. A(B   4,B   6,B   5)           60.2014         0.382976   
     31. A(B   5,B   6,B   7)           60.1976         0.382950   
     32. A(B   6,B   7,B   8)          150.1982         0.397763   
     33. A(B   5,B   7,B   8)          150.1999         0.397775   
     34. A(B   5,B   7,B   6)           59.6020         0.380611   
     35. L(B   7,B   8,B   9,B   6, 2) 180.0000         0.410292   
     36. L(B   7,B   8,B   9,B   6, 1) 179.9997         0.410292   
     37. A(B  10,B   9,B  11)           53.5114         0.380614   
     38. A(B   8,B   9,B  11)          153.2504         0.392424   
     39. A(B   8,B   9,B  10)          153.2382         0.392456   
     40. A(B   9,B  10,B  11)           63.2488         0.421930   
     41. A(B   9,B  11,B  10)           63.2398         0.421894   
     42. D(B   3,B   2,B   0,B   1)    179.9999         0.010000   
     43. D(B   3,B   2,B   1,B   0)   -179.9999         0.010000   
     44. D(B   5,B   4,B   2,B   1)     -0.0010         0.010000   
     45. D(B   6,B   4,B   2,B   0)      0.0007         0.010000   
     46. D(B   6,B   4,B   2,B   1)   -179.9995         0.010000   
     47. D(B   5,B   4,B   2,B   0)    179.9991         0.010000   
     48. D(B   6,B   5,B   4,B   3)   -179.9991         0.010000   
     49. D(B   7,B   5,B   4,B   6)      0.0002         0.010000   
     50. D(B   7,B   5,B   4,B   3)   -179.9989         0.010000   
     51. D(B   7,B   6,B   5,B   4)    179.9998         0.010000   
     52. D(B   4,B   6,B   5,B   7)   -179.9998         0.010000   
     53. D(B   7,B   6,B   4,B   5)     -0.0002         0.010000   
     54. D(B   7,B   6,B   4,B   3)    179.9989         0.010000   
     55. D(B   5,B   6,B   4,B   3)    179.9991         0.010000   
     56. D(B   6,B   7,B   5,B   4)     -0.0002         0.010000   
     57. D(B   8,B   7,B   6,B   5)   -179.9990         0.010000   
     58. D(B   8,B   7,B   6,B   4)   -179.9988         0.010000   
     59. D(B   5,B   7,B   6,B   4)      0.0002         0.010000   
     60. D(B   8,B   7,B   5,B   6)    179.9990         0.010000   
     61. D(B   8,B   7,B   5,B   4)    179.9988         0.010000   
     62. D(B  11,B   9,B   7,B   6)    179.9992         0.010000   
     63. D(B  11,B   9,B   7,B   5)      0.0008         0.010000   
     64. D(B  10,B   9,B   7,B   6)     -0.0010         0.010000   
     65. D(B  10,B   9,B   7,B   5)   -179.9993         0.010000   
     66. D(B  11,B  10,B   9,B   8)   -179.9999         0.010000   
     67. D(B  10,B  11,B   9,B   8)    179.9999         0.010000   
    -----------------------------------------------------------------

Number of atoms                         .... 12
Number of degrees of freedom            .... 67


         *************************************************************
         *                GEOMETRY OPTIMIZATION CYCLE   1            *
         *************************************************************
---------------------------------
CARTESIAN COORDINATES (ANGSTROEM)
---------------------------------
  B     -5.888542    0.781907   -0.000013
  B     -5.903480   -0.657612    0.000057
  B     -4.468389    0.047190    0.000009
  B     -2.917398    0.030809   -0.000006
  B     -1.387351    0.014637   -0.000021
  B     -0.008379   -0.794651    0.000017
  B      0.008345    0.794525   -0.000065
  B      1.387356   -0.014708   -0.000022
  B      2.917405   -0.030824   -0.000007
  B      4.468396   -0.047153    0.000008
  B      5.903463    0.657700   -0.000017
  B      5.888574   -0.781820    0.000059

----------------------------
CARTESIAN COORDINATES (A.U.)
----------------------------
  NO LB      ZA    FRAG     MASS         X           Y           Z
   0 B     5.0000    0    10.810  -11.127732    1.477590   -0.000025
   1 B     5.0000    0    10.810  -11.155960   -1.242707    0.000108
   2 B     5.0000    0    10.810   -8.444031    0.089176    0.000017
   3 B     5.0000    0    10.810   -5.513083    0.058221   -0.000011
   4 B     5.0000    0    10.810   -2.621713    0.027660   -0.000040
   5 B     5.0000    0    10.810   -0.015834   -1.501673    0.000032
   6 B     5.0000    0    10.810    0.015770    1.501435   -0.000123
   7 B     5.0000    0    10.810    2.621723   -0.027794   -0.000042
   8 B     5.0000    0    10.810    5.513096   -0.058249   -0.000013
   9 B     5.0000    0    10.810    8.444045   -0.089106    0.000015
  10 B     5.0000    0    10.810   11.155928    1.242873   -0.000032
  11 B     5.0000    0    10.810   11.127792   -1.477426    0.000111

--------------------------------
INTERNAL COORDINATES (ANGSTROEM)
--------------------------------
 B      0   0   0     0.000000000000     0.00000000     0.00000000
 B      1   0   0     1.439596506006     0.00000000     0.00000000
 B      2   1   0     1.598822078841    63.24887712     0.00000000
 B      3   2   1     1.551077502727   153.23830397   180.00007245
 B      4   3   2     1.530132463553   179.99954303     0.95372870
 B      5   4   3     1.598909267336   150.19784661   359.04527226
 B      6   5   4     1.589263998798    60.19521608   180.00088069
 B      6   5   4     1.598870624846   120.39561989   180.00108854
 B      8   6   5     1.530133872601   150.19987081   179.99882803
 B      9   8   6     1.551076954425   179.99971984   178.45262392
 B     10   9   8     1.598823019200   153.23820506     1.54808058
 B     11  10   9     1.439596998641    63.24880804   180.00007132

---------------------------
INTERNAL COORDINATES (A.U.)
---------------------------
 B      0   0   0     0.000000000000     0.00000000     0.00000000
 B      1   0   0     2.720443139701     0.00000000     0.00000000
 B      2   1   0     3.021335865876    63.24887712     0.00000000
 B      3   2   1     2.931111692641   153.23830397   180.00007245
 B      4   3   2     2.891531304737   179.99954303     0.95372870
 B      5   4   3     3.021500628253   150.19784661   359.04527226
 B      6   5   4     3.003273712229    60.19521608   180.00088069
 B      6   5   4     3.021427604530   120.39561989   180.00108854
 B      8   6   5     2.891533967453   150.19987081   179.99882803
 B      9   8   6     2.931110656499   179.99971984   178.45262392
 B     10   9   8     3.021337642897   153.23820506     1.54808058
 B     11  10   9     2.720444070647    63.24880804   180.00007132

---------------------
BASIS SET INFORMATION
---------------------
There are 1 groups of distinct atoms

 Group   1 Type B   : 11s6p1d contracted to 5s3p1d pattern {62111/411/1}

Atom   0B    basis set group =>   1
Atom   1B    basis set group =>   1
Atom   2B    basis set group =>   1
Atom   3B    basis set group =>   1
Atom   4B    basis set group =>   1
Atom   5B    basis set group =>   1
Atom   6B    basis set group =>   1
Atom   7B    basis set group =>   1
Atom   8B    basis set group =>   1
Atom   9B    basis set group =>   1
Atom  10B    basis set group =>   1
Atom  11B    basis set group =>   1
---------------------------------
AUXILIARY/J BASIS SET INFORMATION
---------------------------------
There are 1 groups of distinct atoms

 Group   1 Type B   : 8s3p3d contracted to 6s3p3d pattern {311111/111/111}

Atom   0B    basis set group =>   1
Atom   1B    basis set group =>   1
Atom   2B    basis set group =>   1
Atom   3B    basis set group =>   1
Atom   4B    basis set group =>   1
Atom   5B    basis set group =>   1
Atom   6B    basis set group =>   1
Atom   7B    basis set group =>   1
Atom   8B    basis set group =>   1
Atom   9B    basis set group =>   1
Atom  10B    basis set group =>   1
Atom  11B    basis set group =>   1


           ************************************************************
           *        Program running with 8 parallel MPI-processes     *
           *              working on a common directory               *
           ************************************************************
------------------------------------------------------------------------------
                             ORCA STARTUP CALCULATIONS
                           -- RI-GTO INTEGRALS CHOSEN --
------------------------------------------------------------------------------
------------------------------------------------------------------------------
                   ___                                                        
                  /   \      - P O W E R E D   B Y -                         
                 /     \                                                     
                 |  |  |   _    _      __       _____    __    __             
                 |  |  |  | |  | |    /  \     |  _  \  |  |  /  |          
                  \  \/   | |  | |   /    \    | | | |  |  | /  /          
                 / \  \   | |__| |  /  /\  \   | |_| |  |  |/  /          
                |  |  |   |  __  | /  /__\  \  |    /   |      \           
                |  |  |   | |  | | |   __   |  |    \   |  |\   \          
                \     /   | |  | | |  |  |  |  | |\  \  |  | \   \       
                 \___/    |_|  |_| |__|  |__|  |_| \__\ |__|  \__/        
                                                                              
                      - O R C A' S   B I G   F R I E N D -                    
                                      &                                       
                       - I N T E G R A L  F E E D E R -                       
                                                                              
 v1 FN, 2020, v2 2021, v3 2022-2024                                           
------------------------------------------------------------------------------


----------------------
SHARK INTEGRAL PACKAGE
----------------------

Number of atoms                             ...     12
Number of basis functions                   ...    228
Number of shells                            ...    108
Maximum angular momentum                    ...      2
Integral batch strategy                     ... SHARK/LIBINT Hybrid
RI-J (if used) integral strategy            ... SPLIT-RIJ (Revised 2003 algorithm where possible)
Printlevel                                  ...      1
Contraction scheme used                     ... SEGMENTED contraction
Prescreening option                         ... SCHWARTZ
   Thresh                                   ... 2.500e-11
   Tcut                                     ... 2.500e-12
   Tpresel                                  ... 2.500e-12 
Coulomb Range Separation                    ... NOT USED
Exchange Range Separation                   ... NOT USED
Multipole approximations                    ... NOT USED
Finite Nucleus Model                        ... NOT USED
CABS basis                                  ... NOT available
Auxiliary Coulomb fitting basis             ... AVAILABLE
   # of basis functions in Aux-J            ...    360
   # of shells in Aux-J                     ...    144
   Maximum angular momentum in Aux-J        ...      2
Auxiliary J/K fitting basis                 ... NOT available
Auxiliary Correlation fitting basis         ... NOT available
Auxiliary 'external' fitting basis          ... NOT available

Checking pre-screening integrals            ... done (  0.0 sec) Dimension = 108
   => SHARK Basis and OBASIS are compatible. Storing Pre-screening
Shell pair information
Shell pair cut-off parameter TPreSel        ...   2.5e-12
Total number of shell pairs                 ...      5886
Shell pairs after pre-screening             ...      4605
Total number of primitive shell pairs       ...     23700
Primitive shell pairs kept                  ...     12568
          la=0 lb=0:   1335 shell pairs
          la=1 lb=0:   1798 shell pairs
          la=1 lb=1:    602 shell pairs
          la=2 lb=0:    480 shell pairs
          la=2 lb=1:    342 shell pairs
          la=2 lb=2:     48 shell pairs

Checking whether 4 symmetric matrices of dimension 228 fit in memory
:Max Core in MB      =   2000.00
 MB in use           =      7.30
 MB left             =   1992.70
 MB needed           =      0.80
 Data fit in memory  = YES
Calculating RI/J V-Matrix + Cholesky decomp.... done (  0.0 sec)
Calculating Nuclear repulsion               ... done (  0.0 sec) ENN=    257.057023872728 Eh

Diagonalization of the overlap matrix:
Smallest eigenvalue                        ... 6.847e-06
Time for diagonalization                   ...    0.007 sec
Threshold for overlap eigenvalues          ... 1.000e-07
Number of eigenvalues below threshold      ... 0
Time for construction of square roots      ...    0.004 sec
Total time needed                          ...    0.014 sec

-------------------
DFT GRID GENERATION
-------------------

General Integration Accuracy     IntAcc      ... 4.388
Radial Grid Type                 RadialGrid  ... OptM3 with GC (2021)
Angular Grid (max. ang.)         AngularGrid ... 4 (Lebedev-302)
Angular grid pruning method      GridPruning ... 4 (adaptive)
Weight generation scheme         WeightScheme... mBecke (2022)
Basis function cutoff            BFCut       ... 1.0000e-11
Integration weight cutoff        WCut        ... 1.0000e-14
Partially contracted basis set               ... off
Rotationally invariant grid construction     ... off
Angular grids for H and He will be reduced by one unit

Total number of grid points                  ...    72348
Total number of batches                      ...     1136
Average number of points per batch           ...       63
Average number of grid points per atom       ...     6029
Grids setup in   0.6 sec
Initializing property integral containers    ... done (  0.0 sec)

SHARK setup successfully completed in   0.8 seconds

Maximum memory used throughout the entire STARTUP-calculation: 20.6 MB


           ************************************************************
           *        Program running with 8 parallel MPI-processes     *
           *              working on a common directory               *
           ************************************************************
-------------------------------------------------------------------------------
                                 ORCA GUESS
                   Start orbitals & Density for SCF / CASSCF
-------------------------------------------------------------------------------

------------
SCF SETTINGS
------------
Hamiltonian:
 Density Functional     Method          .... DFT(GTOs)
  Functional kind                       .... Exchange
  Functional name                       .... Re-regularized SCAN exchange by Furness et al
  Functional family                     .... MGGA
  Functional refs                              
    [ 0] J. W. Furness, A. D. Kaplan, J. Ning, J. P. Perdew, and J. Sun.,  J. Phys. Chem. Lett. 11, 8208-8215 (2020), doi: 10.1021/acs.jpclett.0c02405
    [ 1] J. W. Furness, A. D. Kaplan, J. Ning, J. P. Perdew, and J. Sun.,  J. Phys. Chem. Lett. 11, 9248-9248 (2020), doi: 10.1021/acs.jpclett.0c03077
  Functional external parameters        .... 6
    Parameter  0 _c1        =  6.670000e-01 : c1 parameter        
    Parameter  1 _c2        =  8.000000e-01 : c2 parameter        
    Parameter  2 _d         =  1.240000e+00 : d parameter         
    Parameter  3 _k1        =  6.500000e-02 : k1 parameter        
    Parameter  4 _eta       =  1.000000e-03 : eta parameter       
    Parameter  5 _dp2       =  3.610000e-01 : dp2 parameter       
  Functional kind                       .... Correlation
  Functional name                       .... Re-regularized SCAN correlation by Furness et al
  Functional family                     .... MGGA
  Functional refs                              
    [ 0] J. W. Furness, A. D. Kaplan, J. Ning, J. P. Perdew, and J. Sun.,  J. Phys. Chem. Lett. 11, 8208-8215 (2020), doi: 10.1021/acs.jpclett.0c02405
    [ 1] J. W. Furness, A. D. Kaplan, J. Ning, J. P. Perdew, and J. Sun.,  J. Phys. Chem. Lett. 11, 9248-9248 (2020), doi: 10.1021/acs.jpclett.0c03077
  Functional external parameters        .... 1
    Parameter  0 _eta       =  1.000000e-03 : Regularization parameter
 Gradients option       PostSCFGGA      .... off
 RI-approximation to the Coulomb term is turned on
   Number of AuxJ basis functions       .... 360


General Settings:
 Integral files         IntName         .... zigzag_chain12_d1.50_m3_r2scan
 Hartree-Fock type      HFTyp           .... UHF
 Total Charge           Charge          ....    0
 Multiplicity           Mult            ....    3
 Number of Electrons    NEL             ....   60
 Basis Dimension        Dim             ....  228
 Nuclear Repulsion      ENuc            ....    257.0570238727 Eh

Convergence Acceleration:
 AO-DIIS                CNVDIIS         .... on
   Start iteration      DIISMaxIt       ....    12
   Startup error        DIISStart       ....  0.200000
   # of expansion vecs  DIISMaxEq       ....     5
   Bias factor          DIISBfac        ....   1.050
   Max. coefficient     DIISMaxC        ....  10.000
 MO-DIIS                CNVKDIIS        .... off
 Trust-Rad. Augm. Hess. CNVTRAH         .... auto
   Auto Start mean grad. ratio tolernc. ....  1.125000
   Auto Start start iteration           ....    50
   Auto Start num. interpolation iter.  ....    10
   Max. Number of Micro iterations      ....    24
   Max. Number of Macro iterations      .... Maxiter - #DIIS iter
   Number of Davidson start vectors     ....     2
   Converg. threshold    (grad. norm)   ....   1.000e-05
   Grad. Scal. Fac. for Micro threshold ....   0.100
   Minimum threshold for Micro iter.    ....   1.000e-02
   NR start threshold (gradient norm)   ....   1.000e-04
   Initial trust radius                 ....   0.400
   Minimum AH scaling param. (alpha)    ....   1.000
   Maximum AH scaling param. (alpha)    .... 1000.000
   Quad. conv. algorithm                .... NR
   White noise on init. David. guess    .... on
   Maximum white noise                  ....   0.010
   Pseudo random numbers                .... off
   Inactive MOs                         .... canonical
   Orbital update algorithm             .... Taylor
   Preconditioner                       .... Diag
   Full preconditioner red. dimension   ....   250
   COSX micro iterations for RIJONX calc.... off
 SOSCF                 CNVSOSCF           .... on
   Start iteration     SOSCFMaxIt         ....   150
   Startup grad/error  SOSCFStart         ....  0.003300
   Hessian update      SOSCFHessUp        .... L-BFGS
   Autom. constraints  SOSCFAutoConstrain .... off
 Level Shifting         CNVShift        .... on
   Level shift para.    LevelShift      ....    0.2500
   Turn off err/grad.   ShiftErr        ....    0.0010
 Zerner damping         CNVZerner       .... off
 Static damping         CNVDamp         .... on
   Fraction old density DampFac         ....    0.7000
   Max. Damping (<1)    DampMax         ....    0.9800
   Min. Damping (>=0)   DampMin         ....    0.0000
   Turn off err/grad.   DampErr         ....    0.1000

SCF Procedure:
 Maximum # iterations   MaxIter         ....   125
 SCF integral mode      SCFMode         .... Direct
   Integral package                     .... SHARK and LIBINT hybrid scheme
 Reset frequency        DirectResetFreq ....    20
 Integral Threshold     Thresh          ....  2.500e-11 Eh
 Primitive CutOff       TCut            ....  2.500e-12 Eh

Convergence Tolerance:
 Convergence Check Mode ConvCheckMode   .... Total+1el-Energy
 Convergence forced     ConvForced      .... 0
 Energy Change          TolE            ....  1.000e-08 Eh
 1-El. energy change                    ....  1.000e-05 Eh
 Orbital Gradient       TolG            ....  1.000e-05
 Orbital Rotation angle TolX            ....  1.000e-05
 DIIS Error             TolErr          ....  5.000e-07

------------------------------
INITIAL GUESS: MODEL POTENTIAL
------------------------------
Loading Hartree-Fock densities                     ... done
Calculating cut-offs                               ... done
Initializing the effective Hamiltonian             ... done
Setting up the integral package (SHARK)            ... done
Starting the Coulomb interaction                   ... done (   0.1 sec)
Making the grid                                    ... done (   0.1 sec)
Mapping shells                                     ... done
Starting the XC term evaluation                    ... done (   0.0 sec)
  promolecular density results
     # of electrons  =     59.999287143
     EX              =    -45.299091937
     EC              =     -1.747750810
     EX+EC           =    -47.046842747
Transforming the Hamiltonian                       ... done (   0.0 sec)
Diagonalizing the Hamiltonian                      ... done (   0.0 sec)
Back transforming the eigenvectors                 ... done (   0.0 sec)
Now organizing SCF variables                       ... done
                      ------------------
                      INITIAL GUESS DONE (   0.3 sec)
                      ------------------
             **** ENERGY FILE WAS UPDATED (zigzag_chain12_d1.50_m3_r2scan.en.tmp) ****
Finished Guess after   0.7 sec
Maximum memory used throughout the entire GUESS-calculation: 10.5 MB


           ************************************************************
           *        Program running with 8 parallel MPI-processes     *
           *              working on a common directory               *
           ************************************************************

-------------------------------------------------------------------------------------------
                                      ORCA LEAN-SCF
                              memory conserving SCF solver
-------------------------------------------------------------------------------------------

----------------------------------------D-I-I-S--------------------------------------------
Iteration    Energy (Eh)           Delta-E    RMSDP     MaxDP     DIISErr   Damp  Time(sec)
-------------------------------------------------------------------------------------------
               ***  Starting incremental Fock matrix formation  ***
    1    -296.8150476066854822     0.00e+00  7.66e-03  4.76e-02  9.98e-02  0.700   0.7
Warning: op=0 Small HOMO/LUMO gap (  -0.053) - skipping pre-diagonalization
         Will do a full diagonalization
    2    -297.1168844507392919    -3.02e-01  6.63e-03  7.70e-02  5.79e-02  0.700   0.8
                               ***Turning on AO-DIIS***
    3    -297.2340086288610905    -1.17e-01  5.26e-03  6.44e-02  2.73e-02  0.700   0.5
    4    -297.2934205095618267    -5.94e-02  1.32e-02  1.92e-01  1.61e-02  0.000   0.6
    5    -297.4318213640542012    -1.38e-01  2.68e-03  2.31e-02  1.52e-02  0.000   0.6
    6    -297.4416644838499337    -9.84e-03  1.25e-03  1.04e-02  5.51e-03  0.000   0.7
                              *** Initializing SOSCF ***
---------------------------------------S-O-S-C-F--------------------------------------
Iteration    Energy (Eh)           Delta-E    RMSDP     MaxDP     MaxGrad    Time(sec)
--------------------------------------------------------------------------------------
    7    -297.4434119662846001    -1.75e-03  6.77e-04  5.49e-03  2.27e-03     0.6
               *** Restarting incremental Fock matrix formation ***
    8    -297.4438518418421040    -4.40e-04  6.56e-04  5.02e-03  2.51e-03     0.7
    9    -297.4439646508045030    -1.13e-04  6.30e-04  7.46e-03  3.10e-03     0.7
   10    -297.4441760342519387    -2.11e-04  4.32e-04  6.62e-03  9.35e-04     0.6
   11    -297.4442383309902311    -6.23e-05  4.80e-04  8.66e-03  7.02e-04     0.6
   12    -297.4442923645152064    -5.40e-05  7.49e-04  1.40e-02  5.56e-04     0.5
   13    -297.4443358801636919    -4.35e-05  3.99e-04  7.42e-03  1.06e-03     0.6
   14    -297.4443475343447858    -1.17e-05  2.43e-04  4.35e-03  1.44e-03     0.7
   15    -297.4443686937297002    -2.12e-05  1.42e-04  1.99e-03  4.33e-04     0.6
   16    -297.4443768723975268    -8.18e-06  1.54e-04  1.01e-03  2.66e-04     0.6
   17    -297.4443836310181837    -6.76e-06  1.82e-04  1.48e-03  3.54e-04     0.6
   18    -297.4443892774525580    -5.65e-06  1.50e-04  1.49e-03  1.93e-04     0.6
   19    -297.4443919368434877    -2.66e-06  1.32e-04  1.48e-03  1.65e-04     0.6
   20    -297.4443925336964298    -5.97e-07  5.98e-05  6.40e-04  1.84e-04     0.6
   21    -297.4443937629638981    -1.23e-06  1.37e-05  1.14e-04  5.63e-05     0.6
   22    -297.4443938390945164    -7.61e-08  1.29e-05  1.24e-04  2.14e-05     0.5
   23    -297.4443938402361596    -1.14e-09  7.84e-06  8.05e-05  3.88e-05     0.6
                 **** Energy Check signals convergence ****

               *****************************************************
               *                     SUCCESS                       *
               *           SCF CONVERGED AFTER  23 CYCLES          *
               *****************************************************

             **** ENERGY FILE WAS UPDATED (zigzag_chain12_d1.50_m3_r2scan.en.tmp) ****

----------------
TOTAL SCF ENERGY
----------------

Total Energy       :       -297.44439387042365 Eh           -8093.87344 eV

Components:
Nuclear Repulsion  :        257.05702387272828 Eh            6994.87723 eV
Electronic Energy  :       -554.50141774315193 Eh          -15088.75067 eV
One Electron Energy:       -903.81069617037599 Eh          -24593.93937 eV
Two Electron Energy:        349.30927842722411 Eh            9505.18870 eV

Virial components:
Potential Energy   :       -594.02470268349134 Eh          -16164.23393 eV
Kinetic Energy     :        296.58030881306775 Eh            8070.36049 eV
Virial Ratio       :          2.00291349436115

DFT components:
N(Alpha)           :       30.999999999450 electrons
N(Beta)            :       29.000000130559 electrons
N(Total)           :       60.000000130009 electrons
E(X)               :      -46.532604499924 Eh       
E(C)               :       -1.763457723267 Eh       
E(XC)              :      -48.296062223191 Eh       

---------------
SCF CONVERGENCE
---------------

  Last Energy change         ...    1.1416e-09  Tolerance :   1.0000e-08
  Last MAX-Density change    ...    8.0455e-05  Tolerance :   1.0000e-07
  Last RMS-Density change    ...    7.8367e-06  Tolerance :   5.0000e-09
  Last DIIS Error            ...    2.2694e-03  Tolerance :   5.0000e-07
  Last Orbital Gradient      ...    3.8767e-05  Tolerance :   1.0000e-05
  Last Orbital Rotation      ...    1.6995e-04  Tolerance :   1.0000e-05


----------------------
UHF SPIN CONTAMINATION
----------------------

Warning: in a DFT calculation there is little theoretical justification to 
         calculate <S**2> as in Hartree-Fock theory. We will do it anyways
         but you should keep in mind that the values have only limited relevance

Expectation value of <S**2>     :     2.098163
Ideal value S*(S+1) for S=1.0   :     2.000000
Deviation                       :     0.098163

----------------
ORBITAL ENERGIES
----------------
                 SPIN UP ORBITALS
  NO   OCC          E(Eh)            E(eV) 
   0   1.0000      -6.690385      -182.0546 
   1   1.0000      -6.690383      -182.0546 
   2   1.0000      -6.688434      -182.0015 
   3   1.0000      -6.688432      -182.0015 
   4   1.0000      -6.673864      -181.6051 
   5   1.0000      -6.673856      -181.6049 
   6   1.0000      -6.655863      -181.1153 
   7   1.0000      -6.655135      -181.0954 
   8   1.0000      -6.634745      -180.5406 
   9   1.0000      -6.634741      -180.5405 
  10   1.0000      -6.605847      -179.7542 
  11   1.0000      -6.605836      -179.7539 
  12   1.0000      -0.643552       -17.5119 
  13   1.0000      -0.618421       -16.8281 
  14   1.0000      -0.618217       -16.8226 
  15   1.0000      -0.517864       -14.0918 
  16   1.0000      -0.497303       -13.5323 
  17   1.0000      -0.440638       -11.9904 
  18   1.0000      -0.391076       -10.6417 
  19   1.0000      -0.338227        -9.2036 
  20   1.0000      -0.337699        -9.1892 
  21   1.0000      -0.323306        -8.7976 
  22   1.0000      -0.320665        -8.7257 
  23   1.0000      -0.291363        -7.9284 
  24   1.0000      -0.287258        -7.8167 
  25   1.0000      -0.284713        -7.7474 
  26   1.0000      -0.275966        -7.5094 
  27   1.0000      -0.265513        -7.2250 
  28   1.0000      -0.244915        -6.6645 
  29   1.0000      -0.205531        -5.5928 
  30   1.0000      -0.202666        -5.5148 
  31   0.0000      -0.197607        -5.3772 
  32   0.0000      -0.196277        -5.3410 
  33   0.0000      -0.174830        -4.7574 
  34   0.0000      -0.162392        -4.4189 
  35   0.0000      -0.154361        -4.2004 
  36   0.0000      -0.082904        -2.2559 
  37   0.0000      -0.061681        -1.6784 
  38   0.0000      -0.046588        -1.2677 
  39   0.0000      -0.019044        -0.5182 
  40   0.0000      -0.007554        -0.2056 
  41   0.0000      -0.007463        -0.2031 

                 SPIN DOWN ORBITALS
  NO   OCC          E(Eh)            E(eV) 
   0   1.0000      -6.687941      -181.9881 
   1   1.0000      -6.687938      -181.9881 
   2   1.0000      -6.685997      -181.9352 
   3   1.0000      -6.685994      -181.9352 
   4   1.0000      -6.670112      -181.5030 
   5   1.0000      -6.670104      -181.5028 
   6   1.0000      -6.650267      -180.9630 
   7   1.0000      -6.649573      -180.9441 
   8   1.0000      -6.636498      -180.5883 
   9   1.0000      -6.636493      -180.5882 
  10   1.0000      -6.604643      -179.7215 
  11   1.0000      -6.604632      -179.7212 
  12   1.0000      -0.633147       -17.2288 
  13   1.0000      -0.617534       -16.8040 
  14   1.0000      -0.617327       -16.7983 
  15   1.0000      -0.503304       -13.6956 
  16   1.0000      -0.484018       -13.1708 
  17   1.0000      -0.436424       -11.8757 
  18   1.0000      -0.386555       -10.5187 
  19   1.0000      -0.332387        -9.0447 
  20   1.0000      -0.319544        -8.6952 
  21   1.0000      -0.316405        -8.6098 
  22   1.0000      -0.300951        -8.1893 
  23   1.0000      -0.283021        -7.7014 
  24   1.0000      -0.280471        -7.6320 
  25   1.0000      -0.278117        -7.5680 
  26   1.0000      -0.267348        -7.2749 
  27   1.0000      -0.261120        -7.1054 
  28   1.0000      -0.242479        -6.5982 
  29   0.0000      -0.174446        -4.7469 
  30   0.0000      -0.174182        -4.7397 
  31   0.0000      -0.166783        -4.5384 
  32   0.0000      -0.160159        -4.3581 
  33   0.0000      -0.143343        -3.9006 
  34   0.0000      -0.131154        -3.5689 
  35   0.0000      -0.124805        -3.3961 
  36   0.0000      -0.070770        -1.9258 
  37   0.0000      -0.045780        -1.2457 
  38   0.0000      -0.041737        -1.1357 
  39   0.0000      -0.006025        -0.1639 
*Only the first 10 virtual orbitals were printed.

                    ********************************
                    * MULLIKEN POPULATION ANALYSIS *
                    ********************************

--------------------------------------------
MULLIKEN ATOMIC CHARGES AND SPIN POPULATIONS
--------------------------------------------
   0 B :    0.038440    0.163762
   1 B :    0.038432    0.162861
   2 B :   -0.260729   -0.238938
   3 B :    0.144868    0.498163
   4 B :   -0.007030    0.177311
   5 B :    0.046023    0.236918
   6 B :    0.045983    0.236719
   7 B :   -0.006962    0.177384
   8 B :    0.144841    0.498231
   9 B :   -0.260755   -0.238970
  10 B :    0.038443    0.162605
  11 B :    0.038446    0.163954
Sum of atomic charges         :    0.0000000
Sum of atomic spin populations:    2.0000000

-----------------------------------------------------
MULLIKEN REDUCED ORBITAL CHARGES AND SPIN POPULATIONS
-----------------------------------------------------
CHARGE
  0 B s       :     3.221914  s :     3.221914
      pz      :     0.615027  p :     1.713334
      px      :     0.691272
      py      :     0.407035
      dz2     :     0.002118  d :     0.026311
      dxz     :     0.002019
      dyz     :     0.006172
      dx2y2   :     0.005800
      dxy     :     0.010202

  1 B s       :     3.221889  s :     3.221889
      pz      :     0.615041  p :     1.713364
      px      :     0.687826
      py      :     0.410498
      dz2     :     0.002118  d :     0.026315
      dxz     :     0.002165
      dyz     :     0.006028
      dx2y2   :     0.005937
      dxy     :     0.010068

  2 B s       :     3.031663  s :     3.031663
      pz      :     0.704562  p :     2.209421
      px      :     0.861925
      py      :     0.642934
      dz2     :     0.003113  d :     0.019645
      dxz     :     0.005593
      dyz     :     0.000001
      dx2y2   :     0.006067
      dxy     :     0.004871

  3 B s       :     3.275310  s :     3.275310
      pz      :     0.422647  p :     1.565552
      px      :     0.847744
      py      :     0.295161
      dz2     :     0.002007  d :     0.014269
      dxz     :     0.002845
      dyz     :     0.000000
      dx2y2   :     0.005704
      dxy     :     0.003713

  4 B s       :     2.944999  s :     2.944999
      pz      :     0.604099  p :     2.044452
      px      :     0.608958
      py      :     0.831394
      dz2     :     0.003138  d :     0.017580
      dxz     :     0.004029
      dyz     :     0.000000
      dx2y2   :     0.007695
      dxy     :     0.002717

  5 B s       :     3.129187  s :     3.129187
      pz      :     0.501176  p :     1.792044
      px      :     0.757151
      py      :     0.533717
      dz2     :     0.003211  d :     0.032746
      dxz     :     0.001527
      dyz     :     0.007039
      dx2y2   :     0.007293
      dxy     :     0.013676

  6 B s       :     3.129187  s :     3.129187
      pz      :     0.501211  p :     1.792084
      px      :     0.757176
      py      :     0.533697
      dz2     :     0.003211  d :     0.032747
      dxz     :     0.001527
      dyz     :     0.007039
      dx2y2   :     0.007294
      dxy     :     0.013676

  7 B s       :     2.944987  s :     2.944987
      pz      :     0.604077  p :     2.044395
      px      :     0.608937
      py      :     0.831381
      dz2     :     0.003138  d :     0.017579
      dxz     :     0.004029
      dyz     :     0.000000
      dx2y2   :     0.007695
      dxy     :     0.002717

  8 B s       :     3.275321  s :     3.275321
      pz      :     0.422677  p :     1.565570
      px      :     0.847723
      py      :     0.295170
      dz2     :     0.002007  d :     0.014269
      dxz     :     0.002845
      dyz     :     0.000000
      dx2y2   :     0.005704
      dxy     :     0.003713

  9 B s       :     3.031679  s :     3.031679
      pz      :     0.704558  p :     2.209431
      px      :     0.861945
      py      :     0.642928
      dz2     :     0.003113  d :     0.019645
      dxz     :     0.005594
      dyz     :     0.000001
      dx2y2   :     0.006067
      dxy     :     0.004871

 10 B s       :     3.221888  s :     3.221888
      pz      :     0.615053  p :     1.713354
      px      :     0.687838
      py      :     0.410462
      dz2     :     0.002118  d :     0.026315
      dxz     :     0.002164
      dyz     :     0.006028
      dx2y2   :     0.005937
      dxy     :     0.010069

 11 B s       :     3.221906  s :     3.221906
      pz      :     0.615036  p :     1.713336
      px      :     0.691263
      py      :     0.407037
      dz2     :     0.002118  d :     0.026311
      dxz     :     0.002019
      dyz     :     0.006172
      dx2y2   :     0.005800
      dxy     :     0.010202


SPIN
  0 B s       :     0.059792  s :     0.059792
      pz      :     0.055040  p :     0.105435
      px      :    -0.014930
      py      :     0.065324
      dz2     :    -0.000082  d :    -0.001465
      dxz     :    -0.000182
      dyz     :     0.000011
      dx2y2   :    -0.000676
      dxy     :    -0.000535

  1 B s       :     0.059462  s :     0.059462
      pz      :     0.054925  p :     0.104859
      px      :    -0.013623
      py      :     0.063558
      dz2     :    -0.000082  d :    -0.001460
      dxz     :    -0.000192
      dyz     :     0.000024
      dx2y2   :    -0.000689
      dxy     :    -0.000520

  2 B s       :    -0.043166  s :    -0.043166
      pz      :    -0.045873  p :    -0.198856
      px      :    -0.053453
      py      :    -0.099530
      dz2     :    -0.000071  d :     0.003085
      dxz     :     0.002509
      dyz     :     0.000000
      dx2y2   :     0.000754
      dxy     :    -0.000107

  3 B s       :     0.210197  s :     0.210197
      pz      :     0.304184  p :     0.289338
      px      :    -0.000003
      py      :    -0.014843
      dz2     :    -0.001417  d :    -0.001372
      dxz     :     0.000327
      dyz     :     0.000000
      dx2y2   :     0.000216
      dxy     :    -0.000497

  4 B s       :     0.184850  s :     0.184850
      pz      :     0.161364  p :    -0.010024
      px      :    -0.103145
      py      :    -0.068243
      dz2     :    -0.001004  d :     0.002485
      dxz     :     0.000110
      dyz     :     0.000000
      dx2y2   :     0.003147
      dxy     :     0.000232

  5 B s       :     0.021736  s :     0.021736
      pz      :    -0.032154  p :     0.216476
      px      :    -0.035442
      py      :     0.284072
      dz2     :     0.001006  d :    -0.001295
      dxz     :     0.001458
      dyz     :    -0.001580
      dx2y2   :    -0.001426
      dxy     :    -0.000753

  6 B s       :     0.021642  s :     0.021642
      pz      :    -0.032169  p :     0.216371
      px      :    -0.035484
      py      :     0.284024
      dz2     :     0.001006  d :    -0.001294
      dxz     :     0.001458
      dyz     :    -0.001579
      dx2y2   :    -0.001426
      dxy     :    -0.000753

  7 B s       :     0.184945  s :     0.184945
      pz      :     0.161383  p :    -0.010046
      px      :    -0.103187
      py      :    -0.068242
      dz2     :    -0.001004  d :     0.002484
      dxz     :     0.000110
      dyz     :     0.000000
      dx2y2   :     0.003147
      dxy     :     0.000232

  8 B s       :     0.210229  s :     0.210229
      pz      :     0.304230  p :     0.289374
      px      :    -0.000010
      py      :    -0.014846
      dz2     :    -0.001417  d :    -0.001372
      dxz     :     0.000327
      dyz     :     0.000000
      dx2y2   :     0.000216
      dxy     :    -0.000497

  9 B s       :    -0.043220  s :    -0.043220
      pz      :    -0.045870  p :    -0.198835
      px      :    -0.053453
      py      :    -0.099511
      dz2     :    -0.000071  d :     0.003085
      dxz     :     0.002509
      dyz     :     0.000000
      dx2y2   :     0.000754
      dxy     :    -0.000107

 10 B s       :     0.059369  s :     0.059369
      pz      :     0.054904  p :     0.104696
      px      :    -0.013669
      py      :     0.063461
      dz2     :    -0.000083  d :    -0.001459
      dxz     :    -0.000192
      dyz     :     0.000024
      dx2y2   :    -0.000689
      dxy     :    -0.000519

 11 B s       :     0.059863  s :     0.059863
      pz      :     0.055068  p :     0.105557
      px      :    -0.014880
      py      :     0.065369
      dz2     :    -0.000082  d :    -0.001466
      dxz     :    -0.000182
      dyz     :     0.000010
      dx2y2   :    -0.000676
      dxy     :    -0.000536



                     *******************************
                     * LOEWDIN POPULATION ANALYSIS *
                     *******************************

-------------------------------------------
LOEWDIN ATOMIC CHARGES AND SPIN POPULATIONS
-------------------------------------------
   0 B :    0.069177    0.155119
   1 B :    0.069134    0.154362
   2 B :   -0.199536   -0.092213
   3 B :    0.239073    0.274674
   4 B :   -0.242578    0.164319
   5 B :    0.064747    0.343786
   6 B :    0.064701    0.343673
   7 B :   -0.242552    0.164337
   8 B :    0.239043    0.274717
   9 B :   -0.199530   -0.092196
  10 B :    0.069141    0.154146
  11 B :    0.069180    0.155277

----------------------------------------------------
LOEWDIN REDUCED ORBITAL CHARGES AND SPIN POPULATIONS
----------------------------------------------------
CHARGE
  0 B s       :     2.897205  s :     2.897205
      pz      :     0.623222  p :     1.984419
      px      :     0.792177
      py      :     0.569019
      dz2     :     0.005521  d :     0.049199
      dxz     :     0.002579
      dyz     :     0.008672
      dx2y2   :     0.013313
      dxy     :     0.019115

  1 B s       :     2.897183  s :     2.897183
      pz      :     0.623243  p :     1.984477
      px      :     0.789330
      py      :     0.571904
      dz2     :     0.005521  d :     0.049206
      dxz     :     0.002771
      dyz     :     0.008481
      dx2y2   :     0.013589
      dxy     :     0.018843

  2 B s       :     2.760765  s :     2.760765
      pz      :     0.657097  p :     2.398086
      px      :     1.038573
      py      :     0.702416
      dz2     :     0.006371  d :     0.040684
      dxz     :     0.009165
      dyz     :     0.000001
      dx2y2   :     0.013126
      dxy     :     0.012021

  3 B s       :     2.868662  s :     2.868662
      pz      :     0.459284  p :     1.868090
      px      :     1.086925
      py      :     0.321881
      dz2     :     0.003420  d :     0.024175
      dxz     :     0.004806
      dyz     :     0.000001
      dx2y2   :     0.009737
      dxy     :     0.006212

  4 B s       :     2.733573  s :     2.733573
      pz      :     0.551976  p :     2.472272
      px      :     1.024110
      py      :     0.896186
      dz2     :     0.006168  d :     0.036733
      dxz     :     0.006659
      dyz     :     0.000001
      dx2y2   :     0.016341
      dxy     :     0.007564

  5 B s       :     2.767222  s :     2.767222
      pz      :     0.530838  p :     2.108090
      px      :     0.891278
      py      :     0.685974
      dz2     :     0.006724  d :     0.059942
      dxz     :     0.002607
      dyz     :     0.008566
      dx2y2   :     0.013947
      dxy     :     0.028097

  6 B s       :     2.767216  s :     2.767216
      pz      :     0.530870  p :     2.108140
      px      :     0.891308
      py      :     0.685962
      dz2     :     0.006724  d :     0.059943
      dxz     :     0.002607
      dyz     :     0.008566
      dx2y2   :     0.013948
      dxy     :     0.028097

  7 B s       :     2.733580  s :     2.733580
      pz      :     0.551958  p :     2.472241
      px      :     1.024106
      py      :     0.896177
      dz2     :     0.006168  d :     0.036731
      dxz     :     0.006659
      dyz     :     0.000001
      dx2y2   :     0.016340
      dxy     :     0.007563

  8 B s       :     2.868660  s :     2.868660
      pz      :     0.459311  p :     1.868122
      px      :     1.086927
      py      :     0.321885
      dz2     :     0.003420  d :     0.024175
      dxz     :     0.004806
      dyz     :     0.000001
      dx2y2   :     0.009737
      dxy     :     0.006212

  9 B s       :     2.760765  s :     2.760765
      pz      :     0.657094  p :     2.398080
      px      :     1.038573
      py      :     0.702413
      dz2     :     0.006371  d :     0.040685
      dxz     :     0.009166
      dyz     :     0.000001
      dx2y2   :     0.013125
      dxy     :     0.012021

 10 B s       :     2.897186  s :     2.897186
      pz      :     0.623255  p :     1.984466
      px      :     0.789339
      py      :     0.571872
      dz2     :     0.005521  d :     0.049206
      dxz     :     0.002771
      dyz     :     0.008482
      dx2y2   :     0.013589
      dxy     :     0.018844

 11 B s       :     2.897200  s :     2.897200
      pz      :     0.623233  p :     1.984421
      px      :     0.792169
      py      :     0.569019
      dz2     :     0.005521  d :     0.049199
      dxz     :     0.002579
      dyz     :     0.008672
      dx2y2   :     0.013313
      dxy     :     0.019114


SPIN
  0 B s       :     0.051405  s :     0.051405
      pz      :     0.050946  p :     0.106001
      px      :    -0.016582
      py      :     0.071636
      dz2     :    -0.000068  d :    -0.002287
      dxz     :    -0.000306
      dyz     :     0.000150
      dx2y2   :    -0.001176
      dxy     :    -0.000887

  1 B s       :     0.051212  s :     0.051212
      pz      :     0.050851  p :     0.105432
      px      :    -0.014914
      py      :     0.069496
      dz2     :    -0.000068  d :    -0.002282
      dxz     :    -0.000323
      dyz     :     0.000170
      dx2y2   :    -0.001195
      dxy     :    -0.000866

  2 B s       :    -0.002719  s :    -0.002719
      pz      :    -0.027017  p :    -0.095379
      px      :    -0.002749
      py      :    -0.065613
      dz2     :     0.000108  d :     0.005884
      dxz     :     0.004590
      dyz     :     0.000001
      dx2y2   :     0.001372
      dxy     :    -0.000186

  3 B s       :     0.019327  s :     0.019327
      pz      :     0.279709  p :     0.257534
      px      :    -0.001908
      py      :    -0.020267
      dz2     :    -0.001343  d :    -0.002187
      dxz     :     0.000627
      dyz     :     0.000000
      dx2y2   :    -0.000391
      dxy     :    -0.001079

  4 B s       :     0.015065  s :     0.015065
      pz      :     0.179447  p :     0.142744
      px      :     0.013578
      py      :    -0.050282
      dz2     :    -0.000795  d :     0.006511
      dxz     :     0.000558
      dyz     :     0.000000
      dx2y2   :     0.006149
      dxy     :     0.000599

  5 B s       :     0.094471  s :     0.094471
      pz      :    -0.040533  p :     0.250948
      px      :     0.005307
      py      :     0.286174
      dz2     :     0.001054  d :    -0.001633
      dxz     :     0.002506
      dyz     :    -0.001409
      dx2y2   :    -0.002792
      dxy     :    -0.000993

  6 B s       :     0.094434  s :     0.094434
      pz      :    -0.040546  p :     0.250871
      px      :     0.005300
      py      :     0.286117
      dz2     :     0.001054  d :    -0.001632
      dxz     :     0.002507
      dyz     :    -0.001408
      dx2y2   :    -0.002792
      dxy     :    -0.000993

  7 B s       :     0.015065  s :     0.015065
      pz      :     0.179467  p :     0.142762
      px      :     0.013578
      py      :    -0.050283
      dz2     :    -0.000795  d :     0.006511
      dxz     :     0.000559
      dyz     :     0.000000
      dx2y2   :     0.006148
      dxy     :     0.000599

  8 B s       :     0.019326  s :     0.019326
      pz      :     0.279752  p :     0.257578
      px      :    -0.001906
      py      :    -0.020269
      dz2     :    -0.001344  d :    -0.002187
      dxz     :     0.000627
      dyz     :     0.000000
      dx2y2   :    -0.000391
      dxy     :    -0.001079

  9 B s       :    -0.002720  s :    -0.002720
      pz      :    -0.027013  p :    -0.095361
      px      :    -0.002750
      py      :    -0.065597
      dz2     :     0.000108  d :     0.005884
      dxz     :     0.004590
      dyz     :     0.000001
      dx2y2   :     0.001372
      dxy     :    -0.000186

 10 B s       :     0.051152  s :     0.051152
      pz      :     0.050835  p :     0.105273
      px      :    -0.014955
      py      :     0.069394
      dz2     :    -0.000068  d :    -0.002280
      dxz     :    -0.000323
      dyz     :     0.000171
      dx2y2   :    -0.001196
      dxy     :    -0.000864

 11 B s       :     0.051440  s :     0.051440
      pz      :     0.050969  p :     0.106124
      px      :    -0.016535
      py      :     0.071690
      dz2     :    -0.000068  d :    -0.002288
      dxz     :    -0.000306
      dyz     :     0.000150
      dx2y2   :    -0.001176
      dxy     :    -0.000888



                      *****************************
                      * MAYER POPULATION ANALYSIS *
                      *****************************

  NA   - Mulliken gross atomic population
  ZA   - Total nuclear charge
  QA   - Mulliken gross atomic charge
  VA   - Mayer's total valence
  BVA  - Mayer's bonded valence
  FA   - Mayer's free valence

  ATOM       NA         ZA         QA         VA         BVA        FA
  0 B      4.9616     5.0000     0.0384     3.3981     3.3633     0.0348
  1 B      4.9616     5.0000     0.0384     3.3982     3.3636     0.0346
  2 B      5.2607     5.0000    -0.2607     3.6231     3.6132     0.0100
  3 B      4.8551     5.0000     0.1449     3.2928     3.1626     0.1303
  4 B      5.0070     5.0000    -0.0070     3.3776     3.3389     0.0387
  5 B      4.9540     5.0000     0.0460     3.5853     3.3282     0.2571
  6 B      4.9540     5.0000     0.0460     3.5853     3.3283     0.2570
  7 B      5.0070     5.0000    -0.0070     3.3775     3.3388     0.0387
  8 B      4.8552     5.0000     0.1448     3.2928     3.1625     0.1303
  9 B      5.2608     5.0000    -0.2608     3.6231     3.6132     0.0100
 10 B      4.9616     5.0000     0.0384     3.3981     3.3636     0.0345
 11 B      4.9616     5.0000     0.0384     3.3981     3.3632     0.0349

  Mayer bond orders larger than 0.100000
B(  0-B ,  1-B ) :   1.7855 B(  0-B ,  2-B ) :   1.2332 B(  0-B ,  3-B ) :   0.1443 
B(  1-B ,  2-B ) :   1.2335 B(  1-B ,  3-B ) :   0.1444 B(  2-B ,  3-B ) :   1.3124 
B(  2-B ,  4-B ) :  -0.1673 B(  3-B ,  4-B ) :   1.1587 B(  3-B ,  5-B ) :   0.1087 
B(  3-B ,  6-B ) :   0.1087 B(  3-B ,  8-B ) :   0.1641 B(  4-B ,  5-B ) :   1.0433 
B(  4-B ,  6-B ) :   1.0435 B(  4-B ,  7-B ) :   0.2153 B(  5-B ,  6-B ) :   0.7776 
B(  5-B ,  7-B ) :   1.0435 B(  5-B ,  8-B ) :   0.1086 B(  6-B ,  7-B ) :   1.0433 
B(  6-B ,  8-B ) :   0.1087 B(  7-B ,  8-B ) :   1.1587 B(  7-B ,  9-B ) :  -0.1674 
B(  8-B ,  9-B ) :   1.3124 B(  8-B , 10-B ) :   0.1443 B(  8-B , 11-B ) :   0.1443 
B(  9-B , 10-B ) :   1.2335 B(  9-B , 11-B ) :   1.2332 B( 10-B , 11-B ) :   1.7855 


-------
TIMINGS
-------

Total SCF time: 0 days 0 hours 0 min 15 sec 

Total time                  ....      15.213 sec
Sum of individual times     ....      14.647 sec  ( 96.3%)

SCF preparation             ....       0.442 sec  (  2.9%)
Fock matrix formation       ....      12.250 sec  ( 80.5%)
  Startup                   ....       0.040 sec  (  0.3% of F)
  Split-RI-J                ....       1.512 sec  ( 12.3% of F)
  XC integration            ....      10.597 sec  ( 86.5% of F)
    XC Preparation          ....       0.000 sec  (  0.0% of XC)
    Basis function eval.    ....       0.991 sec  (  9.4% of XC)
    Density eval.           ....       3.033 sec  ( 28.6% of XC)
    XC-Functional eval.     ....       0.642 sec  (  6.1% of XC)
    XC-Potential eval.      ....       3.588 sec  ( 33.9% of XC)
Diagonalization             ....       0.000 sec  (  0.0%)
Density matrix formation    ....       0.288 sec  (  1.9%)
Total Energy calculation    ....       0.117 sec  (  0.8%)
Population analysis         ....       0.064 sec  (  0.4%)
Orbital Transformation      ....       0.134 sec  (  0.9%)
Orbital Orthonormalization  ....       0.000 sec  (  0.0%)
DIIS solution               ....       0.477 sec  (  3.1%)
SOSCF solution              ....       0.875 sec  (  5.8%)
Finished LeanSCF after  15.3 sec

Maximum memory used throughout the entire LEANSCF-calculation: 12.0 MB


-------------------------------------------------------------------------------
                          DFT DISPERSION CORRECTION                            
                                                                               
                                DFTD4 V3.4.0                                   
-------------------------------------------------------------------------------
The R2SCAN3C composite method is recognized
Using three-body term ABC
Active option DFTDOPT                   ...         5   

-------------------------   ----------------
Dispersion correction           -0.004093188
-------------------------   ----------------

------------------   -----------------
gCP correction             0.005880336
------------------   -----------------

-------------------------   --------------------
FINAL SINGLE POINT ENERGY      -297.442606723279
-------------------------   --------------------



           ************************************************************
           *        Program running with 8 parallel MPI-processes     *
           *              working on a common directory               *
           ************************************************************
------------------------------------------------------------------------------
                         ORCA SCF GRADIENT CALCULATION
------------------------------------------------------------------------------

Nuc. rep. gradient        (SHARK) ... done (  0.0 sec)
HCore & Overlap gradient  (SHARK) ... done (  0.1 sec)
Split-RIJ-J gradient      (SHARK) ... done (  0.2 sec)
XC gradient                       ... done (  1.3 sec)
Dispersion correction             ... done (  0.1 sec)

-------------------
DISPERSION GRADIENT
-------------------

   1   B   :   -0.000056624    0.000011231    0.000000000
   2   B   :   -0.000056854   -0.000010037    0.000000001
   3   B   :   -0.000058558    0.000000620    0.000000000
   4   B   :   -0.000030664    0.000000326   -0.000000000
   5   B   :    0.000013511   -0.000000141   -0.000000001
   6   B   :   -0.000000205   -0.000019542    0.000000000
   7   B   :    0.000000206    0.000019539   -0.000000002
   8   B   :   -0.000013511    0.000000139   -0.000000001
   9   B   :    0.000030665   -0.000000326   -0.000000000
  10   B   :    0.000058557   -0.000000618    0.000000000
  11   B   :    0.000056853    0.000010039   -0.000000000
  12   B   :    0.000056624   -0.000011229    0.000000001

Difference to translation invariance:
           :   -0.0000000000    0.0000000000    0.0000000000

Difference to rotation invariance:
           :   -0.0000000000    0.0000000000    0.0000000000

Norm of the Dispersion gradient    ...    0.0001523137
RMS gradient                       ...    0.0000253856
MAX gradient                       ...    0.0000585576
gCP correction                   ... done

------------------
CARTESIAN GRADIENT
------------------

   1   B   :   -0.003325162   -0.039242584    0.000001913
   2   B   :   -0.002459591    0.039317175   -0.000001872
   3   B   :    0.036468209   -0.000395271   -0.000000356
   4   B   :   -0.020221816    0.000217701    0.000000317
   5   B   :   -0.008372215    0.000088005    0.000000011
   6   B   :    0.000217459    0.019040478   -0.000000992
   7   B   :   -0.000237116   -0.019044040    0.000000962
   8   B   :    0.008389446   -0.000084847    0.000000001
   9   B   :    0.020224308   -0.000215529    0.000000331
  10   B   :   -0.036467638    0.000388765   -0.000000361
  11   B   :    0.002465192   -0.039312871    0.000002097
  12   B   :    0.003318924    0.039243018   -0.000002053

Difference to translation invariance:
           :    0.0000000000   -0.0000000000    0.0000000000

Difference to rotation invariance:
           :   -0.0000000617   -0.0000000156    0.0000510029

Norm of the Cartesian gradient     ...    0.1027108112
RMS gradient                       ...    0.0171184685
MAX gradient                       ...    0.0393171749

-------
TIMINGS
-------

Total SCF gradient time     ....        1.661 sec

Densities                   ....       0.001 sec  (  0.1%)
One electron gradient       ....       0.061 sec  (  3.7%)
RI-J Coulomb gradient       ....       0.248 sec  ( 14.9%)
XC gradient                 ....       1.280 sec  ( 77.1%)

Maximum memory used throughout the entire SCFGRAD-calculation: 31.2 MB
------------------------------------------------------------------------------
                         ORCA GEOMETRY RELAXATION STEP
------------------------------------------------------------------------------

Reading the OPT-File                    .... done
Getting information on internals        .... done
Copying old internal coords+grads       .... done
Making the new internal coordinates     .... (2022 redundants) done
Validating the new internal coordinates .... (2022 redundants) done
Calculating the B-matrix                .... done
Calculating the G,G- and P matrices     .... done
Transforming gradient to internals      .... done
Projecting the internal gradient        .... done
Number of atoms                         ....  12
Number of internal coordinates          ....  67
Current Energy                          ....  -297.442606723 Eh
Current gradient norm                   ....     0.102710811 Eh/bohr
Maximum allowed component of the step   ....  0.300
Current trust radius                    ....  0.300
Evaluating the initial hessian          ....  (Almloef) done
Projecting the Hessian                  .... done
Forming the augmented Hessian           .... done
Diagonalizing the augmented Hessian     .... done
Last element of RFO vector              ....  0.991655137
Lowest eigenvalues of augmented Hessian:
 -0.008988522  0.010000000  0.010000000  0.010000000  0.010000000
Length of the computed step             ....  0.130003793
The final length of the internal step   ....  0.130003793
Converting the step to Cartesian space:
 Initial RMS(Int)=    0.0158824911
Transforming coordinates:
 Iter   0:  RMS(Cart)=    0.0329231282 RMS(Int)=    0.0158821943
done
Storing new coordinates                 .... done

                                .--------------------.
          ----------------------|Geometry convergence|-------------------------
          Item                value                   Tolerance       Converged
          ---------------------------------------------------------------------
          RMS gradient        0.0085660576            0.0000300000      NO
          MAX gradient        0.0320867519            0.0001000000      NO
          RMS step            0.0158824911            0.0006000000      NO
          MAX step            0.0648945565            0.0010000000      NO
          -------------------------------------------------------------------------
          ........................................................
          Max(Bonds)      0.0343      Max(Angles)    1.09
          Max(Dihed)        0.00      Max(Improp)    0.00
          ---------------------------------------------------------------------

The optimization has not yet converged - more geometry cycles are needed


    ---------------------------------------------------------------------------
                         Redundant Internal Coordinates
                            (Angstroem and degrees)

        Definition                    Value    dE/dq     Step     New-Value
    ----------------------------------------------------------------------------
     1. B(B   1,B   0)                1.4396 -0.032087  0.0262    1.4658   
     2. B(B   2,B   1)                1.5988 -0.000674 -0.0009    1.5979   
     3. B(B   2,B   0)                1.5990 -0.000639 -0.0009    1.5980   
     4. B(B   3,B   2)                1.5511 -0.030685  0.0343    1.5854   
     5. B(B   4,B   3)                1.5301 -0.010462  0.0109    1.5410   
     6. B(B   5,B   4)                1.5989 -0.002923  0.0038    1.6027   
     7. B(B   6,B   4)                1.5988 -0.002945  0.0038    1.6027   
     8. B(B   6,B   5)                1.5893 -0.010889  0.0142    1.6035   
     9. B(B   7,B   6)                1.5989 -0.002915  0.0038    1.6027   
    10. B(B   7,B   5)                1.5989 -0.002933  0.0038    1.6027   
    11. B(B   8,B   7)                1.5301 -0.010460  0.0109    1.5410   
    12. B(B   9,B   8)                1.5511 -0.030685  0.0343    1.5854   
    13. B(B  10,B   9)                1.5988 -0.000670 -0.0009    1.5979   
    14. B(B  11,B  10)                1.4396 -0.032085  0.0262    1.4658   
    15. B(B  11,B   9)                1.5990 -0.000643 -0.0009    1.5980   
    16. A(B   1,B   0,B   2)           63.24  0.005824   -0.54     62.70   
    17. A(B   0,B   1,B   2)           63.25  0.005849   -0.54     62.70   
    18. A(B   1,B   2,B   3)          153.24  0.005824   -0.54    152.70   
    19. A(B   0,B   2,B   1)           53.51 -0.011674    1.09     54.60   
    20. A(B   0,B   2,B   3)          153.25  0.005850   -0.54    152.71   
    21. L(B   2,B   3,B   4,B   5, 2) 180.00 -0.000000    0.00    180.00   
    22. L(B   2,B   3,B   4,B   5, 1) 180.00 -0.000010    0.00    180.00   
    23. A(B   5,B   4,B   6)           59.60 -0.003041    0.43     60.03   
    24. A(B   3,B   4,B   6)          150.20  0.001511   -0.21    149.98   
    25. A(B   3,B   4,B   5)          150.20  0.001530   -0.22    149.98   
    26. A(B   6,B   5,B   7)           60.20  0.001528   -0.22     59.98   
    27. A(B   4,B   5,B   7)          120.40  0.003042   -0.43    119.96   
    28. A(B   4,B   5,B   6)           60.20  0.001514   -0.21     59.98   
    29. A(B   4,B   6,B   7)          120.40  0.003044   -0.43    119.97   
    30. A(B   4,B   6,B   5)           60.20  0.001527   -0.22     59.99   
[...]
      pz      :     0.561144  p :     2.485670
      px      :     1.026382
      py      :     0.898144
      dz2     :     0.006072  d :     0.036267
      dxz     :     0.006271
      dyz     :     0.000001
      dx2y2   :     0.016083
      dxy     :     0.007839

  5 B s       :     2.781263  s :     2.781263
      pz      :     0.520491  p :     2.089653
      px      :     0.897860
      py      :     0.671302
      dz2     :     0.006467  d :     0.057184
      dxz     :     0.002511
      dyz     :     0.007900
      dx2y2   :     0.013386
      dxy     :     0.026920

  6 B s       :     2.781245  s :     2.781245
      pz      :     0.520526  p :     2.089666
      px      :     0.897879
      py      :     0.671260
      dz2     :     0.006467  d :     0.057185
      dxz     :     0.002511
      dyz     :     0.007899
      dx2y2   :     0.013387
      dxy     :     0.026920

  7 B s       :     2.738828  s :     2.738828
      pz      :     0.561144  p :     2.485670
      px      :     1.026382
      py      :     0.898144
      dz2     :     0.006072  d :     0.036267
      dxz     :     0.006271
      dyz     :     0.000001
      dx2y2   :     0.016083
      dxy     :     0.007839

  8 B s       :     2.888370  s :     2.888370
      pz      :     0.459417  p :     1.835661
      px      :     1.075194
      py      :     0.301050
      dz2     :     0.003186  d :     0.021896
      dxz     :     0.004343
      dyz     :     0.000000
      dx2y2   :     0.008974
      dxy     :     0.005392

  9 B s       :     2.772661  s :     2.772661
      pz      :     0.670621  p :     2.408178
      px      :     1.034525
      py      :     0.703033
      dz2     :     0.006258  d :     0.040433
      dxz     :     0.009012
      dyz     :     0.000001
      dx2y2   :     0.012353
      dxy     :     0.012809

 10 B s       :     2.925128  s :     2.925128
      pz      :     0.618655  p :     1.950191
      px      :     0.783843
      py      :     0.547693
      dz2     :     0.005369  d :     0.046634
      dxz     :     0.002768
      dyz     :     0.007694
      dx2y2   :     0.013090
      dxy     :     0.017713

 11 B s       :     2.925092  s :     2.925092
      pz      :     0.618693  p :     1.950258
      px      :     0.785862
      py      :     0.545703
      dz2     :     0.005369  d :     0.046634
      dxz     :     0.002577
      dyz     :     0.007885
      dx2y2   :     0.012842
      dxy     :     0.017961


SPIN
  0 B s       :     0.057260  s :     0.057260
      pz      :     0.046589  p :     0.096602
      px      :    -0.024110
      py      :     0.074123
      dz2     :    -0.000066  d :    -0.002850
      dxz     :    -0.000312
      dyz     :    -0.000015
      dx2y2   :    -0.001402
      dxy     :    -0.001055

  1 B s       :     0.057363  s :     0.057363
      pz      :     0.046650  p :     0.096919
      px      :    -0.021650
      py      :     0.071918
      dz2     :    -0.000066  d :    -0.002852
      dxz     :    -0.000330
      dyz     :     0.000001
      dx2y2   :    -0.001433
      dxy     :    -0.001025

  2 B s       :    -0.002828  s :    -0.002828
      pz      :    -0.028366  p :    -0.101933
      px      :    -0.004231
      py      :    -0.069336
      dz2     :     0.000084  d :     0.004836
      dxz     :     0.003941
      dyz     :     0.000000
      dx2y2   :     0.001141
      dxy     :    -0.000331

  3 B s       :     0.020391  s :     0.020391
      pz      :     0.290172  p :     0.267760
      px      :    -0.003564
      py      :    -0.018848
      dz2     :    -0.001330  d :    -0.001965
      dxz     :     0.000719
      dyz     :     0.000000
      dx2y2   :    -0.000413
      dxy     :    -0.000942

  4 B s       :     0.014786  s :     0.014786
      pz      :     0.181892  p :     0.143910
      px      :     0.012562
      py      :    -0.050544
      dz2     :    -0.000812  d :     0.006283
      dxz     :     0.000534
      dyz     :     0.000000
      dx2y2   :     0.005996
      dxy     :     0.000565

  5 B s       :     0.096294  s :     0.096294
      pz      :    -0.042511  p :     0.251879
      px      :     0.005867
      py      :     0.288523
      dz2     :     0.001045  d :    -0.001749
      dxz     :     0.002427
      dyz     :    -0.001380
      dx2y2   :    -0.002754
      dxy     :    -0.001088

  6 B s       :     0.096228  s :     0.096228
      pz      :    -0.042537  p :     0.251735
      px      :     0.005848
      py      :     0.288424
      dz2     :     0.001045  d :    -0.001747
      dxz     :     0.002428
      dyz     :    -0.001379
      dx2y2   :    -0.002754
      dxy     :    -0.001087

  7 B s       :     0.014786  s :     0.014786
      pz      :     0.181892  p :     0.143910
      px      :     0.012563
      py      :    -0.050545
      dz2     :    -0.000812  d :     0.006283
      dxz     :     0.000534
      dyz     :     0.000000
      dx2y2   :     0.005996
      dxy     :     0.000565

  8 B s       :     0.020391  s :     0.020391
      pz      :     0.290172  p :     0.267761
      px      :    -0.003563
      py      :    -0.018849
      dz2     :    -0.001330  d :    -0.001965
      dxz     :     0.000719
      dyz     :     0.000000
      dx2y2   :    -0.000413
      dxy     :    -0.000942

  9 B s       :    -0.002828  s :    -0.002828
      pz      :    -0.028366  p :    -0.101932
      px      :    -0.004232
      py      :    -0.069334
      dz2     :     0.000084  d :     0.004836
      dxz     :     0.003941
      dyz     :     0.000000
      dx2y2   :     0.001141
      dxy     :    -0.000331

 10 B s       :     0.057206  s :     0.057206
      pz      :     0.046576  p :     0.096447
      px      :    -0.021839
      py      :     0.071709
      dz2     :    -0.000066  d :    -0.002848
      dxz     :    -0.000330
      dyz     :     0.000003
      dx2y2   :    -0.001434
      dxy     :    -0.001021

 11 B s       :     0.057415  s :     0.057415
      pz      :     0.046662  p :     0.097073
      px      :    -0.023921
      py      :     0.074332
      dz2     :    -0.000066  d :    -0.002854
      dxz     :    -0.000312
      dyz     :    -0.000017
      dx2y2   :    -0.001401
      dxy     :    -0.001058



                      *****************************
                      * MAYER POPULATION ANALYSIS *
                      *****************************

  NA   - Mulliken gross atomic population
  ZA   - Total nuclear charge
  QA   - Mulliken gross atomic charge
  VA   - Mayer's total valence
  BVA  - Mayer's bonded valence
  FA   - Mayer's free valence

  ATOM       NA         ZA         QA         VA         BVA        FA
  0 B      4.9614     5.0000     0.0386     3.3372     3.2961     0.0411
  1 B      4.9613     5.0000     0.0387     3.3371     3.2958     0.0413
  2 B      5.3121     5.0000    -0.3121     3.6016     3.5921     0.0094
  3 B      4.8168     5.0000     0.1832     3.1991     3.0646     0.1345
  4 B      4.9936     5.0000     0.0064     3.2465     3.2061     0.0404
  5 B      4.9548     5.0000     0.0452     3.5590     3.2892     0.2698
  6 B      4.9547     5.0000     0.0453     3.5589     3.2893     0.2696
  7 B      4.9936     5.0000     0.0064     3.2465     3.2061     0.0404
  8 B      4.8168     5.0000     0.1832     3.1991     3.0646     0.1345
  9 B      5.3121     5.0000    -0.3121     3.6016     3.5921     0.0094
 10 B      4.9613     5.0000     0.0387     3.3371     3.2960     0.0411
 11 B      4.9614     5.0000     0.0386     3.3372     3.2959     0.0413

  Mayer bond orders larger than 0.100000
B(  0-B ,  1-B ) :   1.7496 B(  0-B ,  2-B ) :   1.2400 B(  0-B ,  3-B ) :   0.1216 
B(  1-B ,  2-B ) :   1.2397 B(  1-B ,  3-B ) :   0.1215 B(  2-B ,  3-B ) :   1.3313 
B(  2-B ,  4-B ) :  -0.2271 B(  3-B ,  4-B ) :   1.0970 B(  3-B ,  8-B ) :   0.1764 
B(  4-B ,  5-B ) :   1.0437 B(  4-B ,  6-B ) :   1.0439 B(  4-B ,  7-B ) :   0.2250 
B(  5-B ,  6-B ) :   0.7588 B(  5-B ,  7-B ) :   1.0438 B(  6-B ,  7-B ) :   1.0437 
B(  7-B ,  8-B ) :   1.0970 B(  7-B ,  9-B ) :  -0.2271 B(  8-B ,  9-B ) :   1.3313 
B(  8-B , 10-B ) :   0.1215 B(  8-B , 11-B ) :   0.1216 B(  9-B , 10-B ) :   1.2399 
B(  9-B , 11-B ) :   1.2398 B( 10-B , 11-B ) :   1.7496 

-------
TIMINGS
-------

Total SCF time: 0 days 0 hours 0 min 3 sec 

Total time                  ....       3.520 sec
Sum of individual times     ....       2.918 sec  ( 82.9%)

SCF preparation             ....       0.448 sec  ( 12.7%)
Fock matrix formation       ....       2.047 sec  ( 58.2%)
  Startup                   ....       0.015 sec  (  0.8% of F)
  Split-RI-J                ....       0.263 sec  ( 12.9% of F)
  XC integration            ....       2.183 sec  (106.6% of F)
    XC Preparation          ....       0.000 sec  (  0.0% of XC)
    Basis function eval.    ....       0.166 sec  (  7.6% of XC)
    Density eval.           ....       0.539 sec  ( 24.7% of XC)
    XC-Functional eval.     ....       0.125 sec  (  5.7% of XC)
    XC-Potential eval.      ....       0.597 sec  ( 27.3% of XC)
Diagonalization             ....       0.000 sec  (  0.0%)
Density matrix formation    ....       0.036 sec  (  1.0%)
Total Energy calculation    ....       0.019 sec  (  0.5%)
Population analysis         ....       0.081 sec  (  2.3%)
Orbital Transformation      ....       0.046 sec  (  1.3%)
Orbital Orthonormalization  ....       0.000 sec  (  0.0%)
DIIS solution               ....       0.084 sec  (  2.4%)
SOSCF solution              ....       0.157 sec  (  4.5%)
Finished LeanSCF after   3.6 sec

Maximum memory used throughout the entire LEANSCF-calculation: 12.3 MB


-------------------------------------------------------------------------------
                          DFT DISPERSION CORRECTION                            
                                                                               
                                DFTD4 V3.4.0                                   
-------------------------------------------------------------------------------
The R2SCAN3C composite method is recognized
Using three-body term ABC
Active option DFTDOPT                   ...         5   

-------------------------   ----------------
Dispersion correction           -0.004044966
-------------------------   ----------------

------------------   -----------------
gCP correction             0.005885998
------------------   -----------------

-------------------------   --------------------
FINAL SINGLE POINT ENERGY      -297.451682484110
-------------------------   --------------------

                                *** OPTIMIZATION RUN DONE ***



           ************************************************************
           *        Program running with 8 parallel MPI-processes     *
           *              working on a common directory               *
           ************************************************************

------------------------------------------------------------------------------
                              ORCA PROPERTY CALCULATIONS
------------------------------------------------------------------------------

GBWName                                 ... zigzag_chain12_d1.50_m3_r2scan.gbw
Number of atoms                         ...     12
Number of basis functions               ...    228
Max core memory                         ...   2000 MB

Electric properties:
Dipole moment                           ... YES
Quadrupole moment                       ...  NO
Static polarizability (Dipole/Dipole)   ...  NO
Static polarizability (Dipole/Quad.)    ...  NO
Static polarizability (Quad./Quad.)     ...  NO
Static polarizability (Velocity)        ...  NO
Static hyperpolarizability              ...  NO

Atomic electric properties:
Dipole moment                           ...  NO
Quadrupole moment                       ...  NO
Static polarizability                   ...  NO

Choice of electric origin               ... Center of mass
Position of electric origin             ...     0.000000     0.000000    -0.000000

General magnetic properties:
Magnetizability                         ...  NO

EPR properties:
g-Tensor (aka g-matrix)                 ...  NO
Zero-Field splitting spin-orbit         ...  NO
Zero-field splitting spin-spin          ...  NO
Hyperfine couplings                     ...  NO (   0 nuclei)
Quadrupole couplings                    ...  NO (   0 nuclei)
Contact density                         ...  NO (   0 nuclei)

NMR properties:
Chemical shifts                         ...  NO (   0 nuclei)
Spin-rotation constants                 ...  NO (   0 nuclei)
Spin-spin couplings                     ...  NO (   0 nuclei,    0 pairs)

Choice of magnetic origin               ... GIAO
Position of magnetic origin             ...     0.000000     0.000000     0.000000

Properties with geometric perturbations:
SCF Hessian                             ...  NO
IR spectrum                             ...  NO
VCD spectrum                            ...  NO
X-ray spectroscopy properties:
SCF XES/XAS/RIXS spectra                ...  NO

SCF SOC stabilization energy            ...  NO
Diagonal Born-Oppenheimer correction    ...  NO

-------------
DIPOLE MOMENT
-------------

Method             : SCF
Type of density    : Electron Density
Multiplicity       :   3
Irrep              :   0
Energy             :  -297.4535235158125488 Eh
Basis              : AO
                                X                 Y                 Z
Electronic contribution:      0.000002784       0.000029706      -0.000036864
Nuclear contribution   :      0.000000000       0.000000000       0.000000000
                        -----------------------------------------
Total Dipole Moment    :      0.000002784       0.000029706      -0.000036864
                        -----------------------------------------
Magnitude (a.u.)       :      0.000047426
Magnitude (Debye)      :      0.000120546



--------------------
Rotational spectrum 
--------------------
 
Rotational constants in cm-1:             0.434719             0.007636             0.007504 
Rotational constants in MHz :         13032.542184           228.909510           224.958241 

Dipole components along the rotational axes: 
x,y,z [a.u.] :     0.000002     0.000030    -0.000037 
x,y,z [Debye]:     0.000006     0.000076    -0.000094 

 

Dipole moment calculation done in   0.0 sec 

Maximum memory used throughout the entire PROP-calculation: 9.6 MB

--------------------------------
SUGGESTED CITATIONS FOR THIS RUN
--------------------------------

Below you find a list of papers that are relevant to this ORCA run
We neither can nor want to force you to cite these papers, but we appreciate if you do
You receive ORCA, which is the product of decades of hard work by many enthusiastic individuals, for free
The only thing we kindly ask in return is that you cite our papers,
We deeply appreciate it, if you show your appreciation for ORCA by not just citing the generic ORCA reference.

Please note that relegating all ORCA citations to the supporting information does *not* help us.
SI sections are not indexed - citations you put there will not count into any citation statistics
But we need these citations in order to attract the funding resources that allow us to do what we are doing

Therefore, if you are a happy ORCA user, please consider citing a few of the papers listed below in the main body of your paper

In addition to the list printed below, the program has created the file zigzag_chain12_d1.50_m3_r2scan.bibtex that contains the list in bibtex format
You can import this file easily into all common literature databanks and citation aid programs

It goes without saying that in many instances, there are alternative algorithms to achieve similar
results as the ones you have gotten from ORCA. It is, of course, also the case that in some instances
ORCA just re-implements algorithms worked out by others. We are fully aware of that and we are also
fully appreciative of our colleagues work. Hence this citation list should not be read as indicating
that the listed papers, which are focused on our own work, are the only ones worth citing. It simply
meant to make it easier for users to cite ORCA specific papers. It is not a substitute for doing your
own literature research and citing the relevant literature in a scientifically appropriate manner.

List of essential papers. We consider these as the minimum necessary citations

  1. Grimme, S.; Hansen, A.; Ehlert, S.; Mewes, J.
     r2SCAN-3c: A 'Swiss army knife' composite electronic-structure method
     J. Chem. Phys. 2021 154 , 064103
     doi.org/10.1063/5.0040021
  2. Neese, F.
     Software update: the ORCA program system, version 6.0
     WIRES Comput. Molec. Sci. 2025 15(1), e70019
     doi.org/10.1002/wcms.70019

List of papers to cite with high priority. The work reported in these papers was absolutely
necessary for this run to complete.
Our perspective: the developers of density functionals and basis sets usually get cited in chemistry papers
Good! But without the algorithms to do something with them, the functionals or basis sets would not do anything.
Hence, in our opinion, the algorithm design and method developments papers are equally worthy of getting cited

  1. Neese, F.
     An improvement of the resolution of the identity approximation for the formation of the Coulomb matrix
     J. Comp. Chem. 2003 24(14), 1740-1747
     doi.org/10.1002/jcc.10318
  2. Caldeweyher, E.; Bannwarth, C.; Grimme, S.
     Extension of the D3 dispersion coefficient model
     J. Chem. Phys. 2017 147 , 034112
     doi.org/10.1063/1.4993215
  3. Lehtola, S.; Steigemann, C.; Oliveira, M.; Marques, M.
     Recent developments in Libxc - A comprehensive library of functionals for density functional theory
     Software X 2018 7 , 
     doi.org/10.1016/j.softx.2017.11.002
  4. Caldeweyher, E.; Ehlert, S.; Hansen, A.; Neugebauer, H.; Spicher, S.; Bannwarth, C.; Grimme, S.
     A generally applicable atomic-charge dependent London dispersion correction
     J. Chem. Phys. 2019 150 , 154122
     doi.org/10.1063/1.5090222
  5. Neese, F.
     The SHARK Integral Generation and Digestion System
     J. Comp. Chem. 2022 44(3), 381
     doi.org/10.1002/jcc.26942

List of suggested additional citations. These are papers that are important in the 'surrounding' of 
of this run, or papers that preceded the highly important papers. If you like your results we are grateful for a citation.

  1. Neese, F.
     The ORCA program system
     WIRES Comput. Molec. Sci. 2012 2(1), 73-78
     doi.org/10.1002/wcms.81
  2. Neese, F.
     Software update: the ORCA program system, version 4.0
     WIRES Comput. Molec. Sci. 2018 8(1), 1-6
     doi.org/10.1002/wcms.1327
  3. Neese, F.; Wennmohs, F.; Becker, U.; Riplinger, C.
     The ORCA quantum chemistry program package
     J. Chem. Phys. 2020 152(22), 224108
     doi.org/10.1063/5.0004608
  4. Neese, F.
     Software update: The ORCA program system—Version 5.0
     WIRES Comput. Molec. Sci. 2022 12(1), e1606
     doi.org/10.1002/wcms.1606

List of optional additional citations

  1. Neese, F.
     Approximate second-order SCF convergence for spin unrestricted wavefunctions
     Chem. Phys. Lett. 2000 325(1-3), 93-98
     doi.org/10.1016/s0009-2614(00)00662-x

Timings for individual modules:

Sum of individual times          ...      104.478 sec (=   1.741 min)
Startup calculation              ...       12.066 sec (=   0.201 min)  11.5 %
SCF iterations                   ...       72.847 sec (=   1.214 min)  69.7 %
Property calculations            ...        0.604 sec (=   0.010 min)   0.6 %
SCF Gradient evaluation          ...       18.923 sec (=   0.315 min)  18.1 %
Geometry relaxation              ...        0.039 sec (=   0.001 min)   0.0 %
                             ****ORCA TERMINATED NORMALLY****
TOTAL RUN TIME: 0 days 0 hours 1 minutes 50 seconds 511 msec
